 DBCSR| Multiplication driver                                               BLAS
 DBCSR| Multrec recursion limit                                              512
 DBCSR| Multiplication stack size                                           1000
 DBCSR| Maximum elements for images                                    UNLIMITED
 DBCSR| Multiplicative factor virtual images                                   1
 DBCSR| Multiplication size stacks                                             3
 DBCSR| Number of 3D layers                                               SINGLE
 DBCSR| Use MPI memory allocation                                              T
 DBCSR| Use RMA algorithm                                                      F
 DBCSR| Use Communication thread                                               T
 DBCSR| Communication thread load                                             87


  **** **** ******  **  PROGRAM STARTED AT               2024-03-16 18:00:20.840
 ***** ** ***  *** **   PROGRAM STARTED ON                                  tc22
 **    ****   ******    PROGRAM STARTED BY                              fambrosi
 ***** **    ** ** **   PROGRAM PROCESS ID                                 15327
  **** **  *******  **  PROGRAM STARTED IN          /scratch/fambrosi.55166.tccw

 CP2K| version string:                                          CP2K version 6.1
 CP2K| source code revision number:                                    svn:18464
 CP2K| cp2kflags: libint fftw3 libxc parallel mpi3 scalapack has_no_shared_glibc
 CP2K|             libderiv_max_am1=5 libint_max_am=6 max_contr=4 mkl
 CP2K| is freely available from                            https://www.cp2k.org/
 CP2K| Program compiled at                         Mon Jun 25 12:26:44 CEST 2018
 CP2K| Program compiled on                                                  tccw
 CP2K| Program compiled for                     Linux-x86-64-intel.MPI-OPENMP.O2
 CP2K| Data directory path                           /home/edoardo/cp2k-6.1/data
 CP2K| Input file name        /home/fambrosi/hydroxyl/test-koopman/anion/koop4/r
 
 GLOBAL| Force Environment number                                              1
 GLOBAL| Basis set file name               /usr/local/cp2k-6.1/data/BASIS_MOLOPT
 GLOBAL| Potential file name             /usr/local/cp2k-6.1/data/GTH_POTENTIALS
 GLOBAL| MM Potential file name                                     MM_POTENTIAL
 GLOBAL| Coordinate file name                                      __STD_INPUT__
 GLOBAL| Method name                                                        CP2K
 GLOBAL| Project name                                               water+I-.dyn
 GLOBAL| Preferred FFT library                                             FFTW3
 GLOBAL| Preferred diagonalization lib.                                       SL
 GLOBAL| Run type                                                         ENERGY
 GLOBAL| All-to-all communication in single precision                          F
 GLOBAL| FFTs using library dependent lengths                                  T
 GLOBAL| Global print level                                                  LOW
 GLOBAL| Total number of message passing processes                            32
 GLOBAL| Number of threads for this process                                    1
 GLOBAL| This output is from process                                           0
 GLOBAL| CPU model name :  Intel(R) Xeon(R) CPU E5-2683 v4 @ 2.10GHz

 MEMORY| system memory details [Kb]
 MEMORY|                        rank 0           min           max       average
 MEMORY| MemTotal            264564496     264564496     264564496     264564496
 MEMORY| MemFree              73584020      73584020      73584020      73584020
 MEMORY| Buffers                185888        185888        185888        185888
 MEMORY| Cached              182113180     182113180     182113180     182113180
 MEMORY| Slab                  5770896       5770896       5770896       5770896
 MEMORY| SReclaimable          5696608       5696608       5696608       5696608
 MEMORY| MemLikelyFree       261579696     261579696     261579696     261579696

 
 GENERATE|  Preliminary Number of Bonds generated:                             0
 GENERATE|  Achieved consistency in connectivity generation.

 *******************************************************************************
 *******************************************************************************
 **                                                                           **
 **     #####                         ##              ##                      **
 **    ##   ##            ##          ##              ##                      **
 **   ##     ##                       ##            ######                    **
 **   ##     ##  ##   ##  ##   #####  ##  ##   ####   ##    #####    #####    **
 **   ##     ##  ##   ##  ##  ##      ## ##   ##      ##   ##   ##  ##   ##   **
 **   ##  ## ##  ##   ##  ##  ##      ####     ###    ##   ######   ######    **
 **    ##  ###   ##   ##  ##  ##      ## ##      ##   ##   ##       ##        **
 **     #######   #####   ##   #####  ##  ##  ####    ##    #####   ##        **
 **           ##                                                    ##        **
 **                                                                           **
 **                                                ... make the atoms dance   **
 **                                                                           **
 **            Copyright (C) by CP2K developers group (2000 - 2018)           **
 **                                                                           **
 *******************************************************************************


 TOTAL NUMBERS AND MAXIMUM NUMBERS

  Total number of            - Atomic kinds:                                   2
                             - Atoms:                                        191
                             - Shell sets:                                  1146
                             - Shells:                                      1338
                             - Primitive Cartesian functions:               1528
                             - Cartesian basis functions:                   4081
                             - Spherical basis functions:                   3634

  Maximum angular momentum of- Orbital basis functions:                        3
                             - Local part of the GTH pseudopotential:          2
                             - Non-local part of the GTH pseudopotential:      0

  AUX_FIT ADMM-Basis: 
  Total number of            - Shell sets:                                   510
                             - Shells:                                       510
                             - Primitive Cartesian functions:                765
                             - Cartesian basis functions:                    766
                             - Spherical basis functions:                    766
                               Maximum angular momentum                        1


 SCF PARAMETERS         Density guess:                                   RESTART
                        --------------------------------------------------------
                        max_scf:                                              50
                        max_scf_history:                                       0
                        max_diis:                                              4
                        --------------------------------------------------------
                        eps_scf:                                        1.00E-05
                        eps_scf_history:                                0.00E+00
                        eps_diis:                                       1.00E-01
                        eps_eigval:                                     1.00E-05
                        --------------------------------------------------------
                        level_shift [a.u.]:                                 0.00
                        --------------------------------------------------------
                        Outer loop SCF in use 
                        No variables optimised in outer loop
                        eps_scf                                         1.00E-05
                        max_scf                                               50
                        No outer loop optimization
                        step_size                                       5.00E-01

 Spin 1

 Number of electrons:                                                        256
 Number of occupied orbitals:                                                256
 Number of molecular orbitals:                                               256

 Spin 2

 Number of electrons:                                                        255
 Number of occupied orbitals:                                                255
 Number of molecular orbitals:                                               255

 Number of orbital functions:                                               3634
 Number of independent orbital functions:                                   3634

 Extrapolation method: initial_guess


 SCF WAVEFUNCTION OPTIMIZATION

  ----------------------------------- OT ---------------------------------------
  Minimizer      : CG                  : conjugate gradient
  Preconditioner : FULL_SINGLE_INVERSE : inversion of 
                                         H + eS - 2*(Sc)(c^T*H*c+const)(Sc)^T
  Precond_solver : DEFAULT
  Line search    : 2PNT                : 2 energies, one gradient
  stepsize       :    0.08000000                  energy_gap     :    0.08000000
  eps_taylor     :   0.10000E-15                  max_taylor     :             4
  ----------------------------------- OT ---------------------------------------

  Step     Update method      Time    Convergence         Total energy    Change
  ------------------------------------------------------------------------------

 *** WARNING in hfx_energy_potential.F:605 :: The Kohn Sham matrix is not  ***
 *** 100% occupied. This may result in incorrect Hartree-Fock results. Try ***
 *** to decrease EPS_PGF_ORB and EPS_FILTER_MATRIX in the QS section. For  ***
 *** more information see FAQ: https://www.cp2k.org/faq:hfx_eps_warning    ***

     1 OT CG       0.80E-01   83.5     0.00083821     -1099.1102258004 -1.10E+03
     2 OT LS       0.32E+00   15.1                    -1099.2036371984
     3 OT CG       0.32E+00   24.4     0.00043977     -1099.3513810947 -2.41E-01
     4 OT LS       0.15E+00   15.2                    -1099.3452583050
     5 OT CG       0.15E+00   24.6     0.00035709     -1099.3810776688 -2.97E-02
     6 OT LS       0.12E+00   15.2                    -1099.3941408004
     7 OT CG       0.12E+00   24.2     0.00026552     -1099.3953959977 -1.43E-02
     8 OT LS       0.16E+00   15.4                    -1099.4050776174
     9 OT CG       0.16E+00   24.5     0.00011324     -1099.4057563138 -1.04E-02
    10 OT LS       0.19E+00   15.7                    -1099.4079277845
    11 OT CG       0.19E+00   24.6     0.00009636     -1099.4079763474 -2.22E-03
    12 OT LS       0.98E-01   15.4                    -1099.4081493024
    13 OT CG       0.98E-01   24.7     0.00004915     -1099.4088239746 -8.48E-04
    14 OT LS       0.18E+00   15.3                    -1099.4091464296
    15 OT CG       0.18E+00   25.0     0.00002460     -1099.4092350804 -4.11E-04
    16 OT LS       0.11E+00   15.3                    -1099.4092644340
    17 OT CG       0.11E+00   25.3     0.00001609     -1099.4092952128 -6.01E-05
    18 OT LS       0.14E+00   15.3                    -1099.4093268706
    19 OT CG       0.14E+00   24.9     0.00000760     -1099.4093286377 -3.34E-05

  *** SCF run converged in    19 steps ***


  Electronic density on regular grids:       -510.9999999999        0.0000000001
  Core density on regular grids:              510.9999999998       -0.0000000002
  Total charge density on r-space grids:       -0.0000000001
  Total charge density g-space grids:          -0.0000000001

  Overlap energy of the core charge distribution:               0.00000190354231
  Self energy of the core charge distribution:              -2836.80744583234036
  Core Hamiltonian energy:                                    822.24564302928047
  Hartree energy:                                            1182.70928014857827
  Exchange-correlation energy:                               -152.29076112730021
  Hartree-Fock Exchange energy:                              -117.41401890058961
  Dispersion energy:                                            2.14797214113373

  Total energy:                                             -1099.40932863769535

  outer SCF iter =    1 RMS gradient =   0.76E-05 energy =      -1099.4093286377
  outer SCF loop converged in   1 iterations or   19 steps


  Integrated absolute spin density  :                               1.1334905190
  Ideal and single determinant S**2 :                    0.750000       0.754311
  
  Eigenvalues of the occupied subspace spin            1
 ---------------------------------------------
      -1.14752314     -1.05960084     -1.05213918     -1.05087580
      -1.04990043     -1.04842945     -1.04719527     -1.04649845
      -1.04373028     -1.04023032     -1.03848088     -1.03695460
      -1.03645170     -1.03603812     -1.03101473     -1.02886774
      -1.02744958     -1.02637043     -1.02367219     -1.02343158
      -1.02287645     -1.02088925     -1.02039042     -1.01866851
      -1.01847697     -1.01733986     -1.01703709     -1.01537659
      -1.01423428     -1.01231940     -1.01074159     -1.00940713
      -1.00864656     -1.00825599     -1.00716784     -1.00641467
      -1.00477163     -1.00440317     -1.00344802     -1.00301956
      -1.00228696     -1.00113006     -1.00085050     -0.99904778
      -0.99793723     -0.99657200     -0.99569296     -0.99466291
      -0.99307284     -0.99125320     -0.99091726     -0.98934789
      -0.98733180     -0.98656273     -0.98525427     -0.98475416
      -0.97966867     -0.97901629     -0.97696359     -0.97675627
      -0.97343042     -0.97231651     -0.97121196     -0.94768880
      -0.55662568     -0.54280776     -0.53283216     -0.51475849
      -0.51277971     -0.51135611     -0.50987022     -0.50518375
      -0.50487663     -0.50050613     -0.49941289     -0.49906173
      -0.49467496     -0.49434278     -0.49327732     -0.49291972
      -0.49219999     -0.48843731     -0.48757795     -0.48659800
      -0.48489764     -0.48410150     -0.48230489     -0.48041523
      -0.47913823     -0.47807469     -0.47763756     -0.47682864
      -0.47666517     -0.47572146     -0.47530544     -0.47496836
      -0.47367134     -0.47244450     -0.47123439     -0.46963107
      -0.46829497     -0.46738622     -0.46536039     -0.46448973
      -0.46424418     -0.46272516     -0.46201739     -0.46125596
      -0.45817695     -0.45698433     -0.45578694     -0.45537029
      -0.45373775     -0.45258112     -0.45168420     -0.45037127
      -0.44716109     -0.44639150     -0.44552122     -0.44515528
      -0.44120350     -0.43930151     -0.43822079     -0.43591100
      -0.43441774     -0.43372878     -0.43143629     -0.42721897
      -0.42289681     -0.41938387     -0.41138013     -0.40962126
      -0.40531594     -0.40212648     -0.39691350     -0.39487246
      -0.39109812     -0.38973545     -0.38751276     -0.38687689
      -0.38505283     -0.38198032     -0.37932934     -0.37872471
      -0.37748277     -0.37696499     -0.37472596     -0.37154469
      -0.37042557     -0.36978417     -0.36843155     -0.36734633
      -0.36566097     -0.36340630     -0.36281186     -0.35898550
      -0.35832776     -0.35746933     -0.35524431     -0.35298677
      -0.35181793     -0.35010492     -0.34890576     -0.34776806
      -0.34584975     -0.34534201     -0.34304015     -0.34177515
      -0.34035995     -0.33893134     -0.33841839     -0.33757982
      -0.33490622     -0.33358518     -0.33145683     -0.32882762
      -0.32825623     -0.32611159     -0.32358166     -0.32317740
      -0.32233154     -0.31976366     -0.31802597     -0.31747248
      -0.31406414     -0.31326367     -0.31295613     -0.31129717
      -0.30666582     -0.30590658     -0.30562514     -0.30457898
      -0.30285417     -0.30137570     -0.30041108     -0.29775256
      -0.29526081     -0.29497257     -0.29321347     -0.29133861
      -0.29013108     -0.28974174     -0.28823349     -0.28723425
      -0.28493391     -0.28441817     -0.28143864     -0.27948748
      -0.27854775     -0.27770508     -0.27737478     -0.27719274
      -0.27668117     -0.27598617     -0.27575517     -0.27394883
      -0.27319275     -0.27239280     -0.27072950     -0.26919926
      -0.26744676     -0.26719628     -0.26692921     -0.26609537
      -0.26530291     -0.26405834     -0.26311364     -0.26237691
      -0.26096907     -0.26019669     -0.25944241     -0.25882376
      -0.25857103     -0.25757676     -0.25696578     -0.25583527
      -0.25464577     -0.25406924     -0.25365430     -0.25314085
      -0.25188525     -0.25101231     -0.24917304     -0.24818518
      -0.24783775     -0.24733220     -0.24620749     -0.24426097
      -0.24250937     -0.24110361     -0.23931007     -0.23793672
      -0.23704454     -0.23389090     -0.23269750     -0.22345568
 Fermi Energy [eV] :   -6.080538
  
  Eigenvalues of the occupied subspace spin            2
 ---------------------------------------------
      -1.06431460     -1.05949846     -1.05198946     -1.04943461
      -1.04895346     -1.04698429     -1.04544758     -1.04384796
      -1.04029284     -1.03881392     -1.03713680     -1.03652821
      -1.03552586     -1.03100676     -1.02887130     -1.02747678
      -1.02740749     -1.02558137     -1.02346874     -1.02342343
      -1.02268465     -1.02084110     -1.02032201     -1.01862318
      -1.01840876     -1.01729184     -1.01688535     -1.01502901
      -1.01420683     -1.01230102     -1.01069979     -1.00939968
      -1.00861551     -1.00824626     -1.00715114     -1.00640134
      -1.00476188     -1.00438553     -1.00341803     -1.00291585
      -1.00226583     -1.00110774     -1.00081908     -0.99903444
      -0.99791020     -0.99653999     -0.99568313     -0.99459539
      -0.99302375     -0.99123330     -0.99087203     -0.98933633
      -0.98731559     -0.98648564     -0.98522628     -0.98470036
      -0.97966206     -0.97898966     -0.97693854     -0.97674982
      -0.97329085     -0.97228108     -0.97119557     -0.94755365
      -0.53845167     -0.52985814     -0.51476589     -0.51276450
      -0.51135984     -0.50979880     -0.50618887     -0.50492790
      -0.50432980     -0.50005753     -0.49939359     -0.49905217
      -0.49446028     -0.49332867     -0.49322870     -0.49219485
      -0.48855107     -0.48760391     -0.48681283     -0.48626985
      -0.48479587     -0.48284913     -0.48221732     -0.48014762
      -0.47776533     -0.47752557     -0.47682116     -0.47624832
      -0.47549117     -0.47528608     -0.47493303     -0.47349418
      -0.47303084     -0.47224474     -0.47089842     -0.46954669
      -0.46826296     -0.46537098     -0.46462093     -0.46425556
      -0.46265433     -0.46201269     -0.46125102     -0.45816713
      -0.45701093     -0.45601166     -0.45540024     -0.45373855
      -0.45257583     -0.45166979     -0.45035551     -0.44715422
      -0.44640643     -0.44550308     -0.44510473     -0.44119858
      -0.43926883     -0.43822968     -0.43590613     -0.43441972
      -0.43370376     -0.43141143     -0.42716220     -0.42243010
      -0.41528682     -0.41165635     -0.40577773     -0.40520640
      -0.40060041     -0.39648443     -0.39400373     -0.39044343
      -0.38763597     -0.38707748     -0.38629470     -0.38417944
      -0.38175524     -0.38024928     -0.37868493     -0.37735809
      -0.37682847     -0.37421924     -0.37061670     -0.37017536
      -0.36909780     -0.36766558     -0.36665570     -0.36539901
      -0.36317433     -0.36236729     -0.35875554     -0.35827467
      -0.35568243     -0.35531071     -0.35296024     -0.35160549
      -0.35010105     -0.34878179     -0.34705178     -0.34563604
      -0.34460482     -0.34299110     -0.34086898     -0.33907981
      -0.33859405     -0.33812103     -0.33745485     -0.33497007
      -0.33303811     -0.33089076     -0.32850123     -0.32757334
      -0.32602155     -0.32353779     -0.32315910     -0.32128619
      -0.31972888     -0.31793730     -0.31726743     -0.31405996
      -0.31311246     -0.31288938     -0.31039421     -0.30657211
      -0.30583653     -0.30527046     -0.30433578     -0.30265808
      -0.30125436     -0.29996868     -0.29773659     -0.29510374
      -0.29439450     -0.29241767     -0.29127041     -0.28995295
      -0.28958726     -0.28774741     -0.28718832     -0.28488879
      -0.28435618     -0.28136238     -0.27947124     -0.27853595
      -0.27768106     -0.27735932     -0.27717821     -0.27666172
      -0.27597508     -0.27574613     -0.27392805     -0.27317978
      -0.27237100     -0.27071369     -0.26918291     -0.26743400
      -0.26716041     -0.26689191     -0.26607315     -0.26528034
      -0.26404704     -0.26309657     -0.26235228     -0.26095061
      -0.26017210     -0.25942988     -0.25881115     -0.25855748
      -0.25756807     -0.25694561     -0.25581296     -0.25463657
      -0.25405252     -0.25361048     -0.25307566     -0.25187667
      -0.25100420     -0.24916491     -0.24817687     -0.24782412
      -0.24731745     -0.24618946     -0.24421876     -0.24246356
      -0.24105919     -0.23915915     -0.23779991     -0.23696074
      -0.23381536     -0.23254587     -0.22316318
 Fermi Energy [eV] :   -6.072579
  
  Lowest Eigenvalues of the unoccupied subspace spin            1
 -----------------------------------------------------
  Reached convergence in           49  iterations 
       0.10463763
  
  Lowest Eigenvalues of the unoccupied subspace spin            2
 -----------------------------------------------------
  Reached convergence in           63  iterations 
       0.09927378
  
 HOMO - LUMO gap [eV] :    8.927873
 HOMO - LUMO gap [eV] :    8.773956

 ENERGY| Total FORCE_EVAL ( QS ) energy (a.u.):            -1099.409328637695353


 -------------------------------------------------------------------------------
 -                                                                             -
 -                                DBCSR STATISTICS                             -
 -                                                                             -
 -------------------------------------------------------------------------------
 COUNTER                                    TOTAL       BLAS       SMM       ACC
 flops    63 x     1 x    31                 7812     100.0%      0.0%      0.0%
 flops    64 x     1 x    31                23808     100.0%      0.0%      0.0%
 flops    63 x     1 x    32                56448     100.0%      0.0%      0.0%
 flops    65 x     1 x    33               107250     100.0%      0.0%      0.0%
 flops   898 x     1 x    31               111352     100.0%      0.0%      0.0%
 flops    63 x     1 x   442               111384     100.0%      0.0%      0.0%
 flops     1 x     1 x   442               192712     100.0%      0.0%      0.0%
 flops    64 x     1 x    33               316800     100.0%      0.0%      0.0%
 flops   912 x     1 x    31               339264     100.0%      0.0%      0.0%
 flops    65 x     1 x    32               728000     100.0%      0.0%      0.0%
 flops    63 x     1 x   456               804384     100.0%      0.0%      0.0%
 flops    31 x    31 x   442               849524     100.0%      0.0%      0.0%
 flops     1 x     1 x   456              1391712     100.0%      0.0%      0.0%
 flops    65 x     1 x   442              1436500     100.0%      0.0%      0.0%
 flops   898 x     1 x    33              1481700     100.0%      0.0%      0.0%
 flops    32 x    31 x   442              2630784     100.0%      0.0%      0.0%
 flops    31 x    32 x   442              3507712     100.0%      0.0%      0.0%
 flops    65 x    33 x   442              3792360     100.0%      0.0%      0.0%
 flops   912 x     1 x    33              4514400     100.0%      0.0%      0.0%
 flops    31 x    31 x   456              6135024     100.0%      0.0%      0.0%
 flops    64 x     1 x    32              6778880     100.0%      0.0%      0.0%
 flops    14 x    31 x    31              6834632     100.0%      0.0%      0.0%
 flops    29 x    31 x    31              7134464     100.0%      0.0%      0.0%
 flops    65 x     1 x   456             10374000     100.0%      0.0%      0.0%
 flops    64 x    33 x   442             11202048     100.0%      0.0%      0.0%
 flops    64 x     1 x   442             12276992     100.0%      0.0%      0.0%
 flops    63 x    31 x    31             12350772     100.0%      0.0%      0.0%
 flops    32 x    31 x   456             18998784     100.0%      0.0%      0.0%
 flops    14 x    32 x    31             24692864     100.0%      0.0%      0.0%
 flops    14 x    31 x    32             24692864     100.0%      0.0%      0.0%
 flops    31 x    32 x   456             25331712     100.0%      0.0%      0.0%
 flops    65 x    32 x   442             25742080     100.0%      0.0%      0.0%
 flops    29 x    32 x    31             25776128     100.0%      0.0%      0.0%
 flops    29 x    31 x    32             25776128     100.0%      0.0%      0.0%
 flops   898 x     1 x    32             26494592     100.0%      0.0%      0.0%
 flops    65 x    33 x   456             27387360     100.0%      0.0%      0.0%
 flops    64 x    31 x    31             37640448     100.0%      0.0%      0.0%
 flops     2 x     2 x    31             38299136     100.0%      0.0%      0.0%
 flops   898 x     1 x   442             45248424     100.0%      0.0%      0.0%
 flops   898 x    33 x   442             52392912     100.0%      0.0%      0.0%
 flops    32 x    32 x   442             57933824     100.0%      0.0%      0.0%
 flops     8 x     2 x    31             75090432     100.0%      0.0%      0.0%
 flops     2 x     8 x    31             75090432     100.0%      0.0%      0.0%
 flops   912 x     1 x    32             80722944     100.0%      0.0%      0.0%
 flops    64 x    33 x   456             80898048     100.0%      0.0%      0.0%
 flops    63 x    31 x   442             86322600     100.0%      0.0%      0.0%
 flops    64 x     1 x   456             88660992     100.0%      0.0%      0.0%
 flops    63 x    31 x    32             89244288     100.0%      0.0%      0.0%
 flops    63 x    32 x    31             89244288     100.0%      0.0%      0.0%
 flops   898 x    31 x    31            113913096     100.0%      0.0%      0.0%
 flops     8 x     8 x    31            120928768     100.0%      0.0%      0.0%
 flops   912 x     1 x   442            137861568     100.0%      0.0%      0.0%
 flops   912 x    33 x   442            159629184     100.0%      0.0%      0.0%
 flops    65 x    32 x   456            185902080     100.0%      0.0%      0.0%
 flops    64 x    31 x   442            263078400     100.0%      0.0%      0.0%
 flops   898 x    31 x   442            270696712     100.0%      0.0%      0.0%
 flops    64 x    32 x    31            271982592     100.0%      0.0%      0.0%
 flops    64 x    31 x    32            271982592     100.0%      0.0%      0.0%
 flops   898 x     1 x   456            326771424     100.0%      0.0%      0.0%
 flops   912 x    31 x    31            347067072     100.0%      0.0%      0.0%
 flops   898 x    33 x   456            378366912     100.0%      0.0%      0.0%
 flops    32 x    32 x   456            418381824     100.0%      0.0%      0.0%
 flops    14 x    32 x    32            466092032     100.0%      0.0%      0.0%
 flops    29 x    32 x    32            486539264     100.0%      0.0%      0.0%
 flops     2 x     2 x    32            593018880     100.0%      0.0%      0.0%
 flops    63 x    31 x   456            623397600     100.0%      0.0%      0.0%
 flops    63 x    32 x   442            623750400     100.0%      0.0%      0.0%
 flops    63 x    32 x    32            644861952     100.0%      0.0%      0.0%
 flops   898 x    32 x    31            823113984     100.0%      0.0%      0.0%
 flops   898 x    31 x    32            823113984     100.0%      0.0%      0.0%
 flops   912 x    31 x   442            824750784     100.0%      0.0%      0.0%
 flops   912 x     1 x   456            995597568     100.0%      0.0%      0.0%
 flops   912 x    33 x   456           1152797184     100.0%      0.0%      0.0%
 flops     8 x     2 x    32           1162690560     100.0%      0.0%      0.0%
 flops     2 x     8 x    32           1162690560     100.0%      0.0%      0.0%
 flops    14 x     1 x    14           1442469840     100.0%      0.0%      0.0%
 flops    29 x     1 x    14           1514250080     100.0%      0.0%      0.0%
 flops    14 x     1 x    29           1514250080     100.0%      0.0%      0.0%
 flops    29 x     1 x    29           1584578560     100.0%      0.0%      0.0%
 flops     8 x     8 x    32           1872445440     100.0%      0.0%      0.0%
 flops    64 x    31 x   456           1899878400     100.0%      0.0%      0.0%
 flops   898 x    31 x   456           1954895712     100.0%      0.0%      0.0%
 flops    14 x    14 x    31           2058402976     100.0%      0.0%      0.0%
 flops    14 x    29 x    31           2142741328     100.0%      0.0%      0.0%
 flops    29 x    14 x    31           2143748208     100.0%      0.0%      0.0%
 flops    29 x    29 x    31           2277562560     100.0%      0.0%      0.0%
 flops   912 x    31 x    32           2507839488     100.0%      0.0%      0.0%
 flops   912 x    32 x    31           2507839488     100.0%      0.0%      0.0%
 flops    63 x    32 x   456           4504550400     100.0%      0.0%      0.0%
 flops   898 x    32 x   442           4953511680     100.0%      0.0%      0.0%
 flops    64 x    32 x   442           4989550592     100.0%      0.0%      0.0%
 flops   912 x    31 x   456           5956118784     100.0%      0.0%      0.0%
 flops    14 x    31 x    14           7193534376     100.0%      0.0%      0.0%
 flops    64 x    32 x    32           7266893824     100.0%      0.0%      0.0%
 flops    29 x    31 x    14           7551499312     100.0%      0.0%      0.0%
 flops    14 x    31 x    29           7551499312     100.0%      0.0%      0.0%
 flops    29 x    31 x    29           7902224384     100.0%      0.0%      0.0%
 flops   898 x    32 x    32          13716037632     100.0%      0.0%      0.0%
 flops   912 x    32 x   442          15092213760     100.0%      0.0%      0.0%
 flops    14 x    14 x    32          31872046080     100.0%      0.0%      0.0%
 flops    14 x    29 x    32          33177930240     100.0%      0.0%      0.0%
 flops    29 x    14 x    32          33193520640     100.0%      0.0%      0.0%
 flops    29 x    29 x    32          35265484800     100.0%      0.0%      0.0%
 flops   898 x    32 x   456          35772871680     100.0%      0.0%      0.0%
 flops    64 x    32 x   456          36033134592     100.0%      0.0%      0.0%
 flops   912 x    32 x    32          41789620224     100.0%      0.0%      0.0%
 flops   912 x    32 x   456         108991733760     100.0%      0.0%      0.0%
 flops    14 x    32 x    14         109778226432     100.0%      0.0%      0.0%
 flops    29 x    32 x    14         115241014784     100.0%      0.0%      0.0%
 flops    14 x    32 x    29         115241014784     100.0%      0.0%      0.0%
 flops    29 x    32 x    29         120593317888     100.0%      0.0%      0.0%
 flops inhomo. stacks                     2457690     100.0%      0.0%      0.0%
 flops total                       943.917059E+09     100.0%      0.0%      0.0%
 flops max/rank                     31.288076E+09     100.0%      0.0%      0.0%
 matmuls inhomo. stacks                      1905     100.0%      0.0%      0.0%
 matmuls total                           41244691     100.0%      0.0%      0.0%
 number of processed stacks                332665     100.0%      0.0%      0.0%
 average stack size                                   124.0       0.0       0.0
 marketing flops                     1.095271E+12
 -------------------------------------------------------------------------------
 # multiplications                           2270
 max memory usage/rank             494.690304E+06
 # max total images/rank                        2
 # max 3D layers                                1
 # MPI messages exchanged                 1525440
 MPI messages size (bytes):
  total size                       322.409333E+09
  min size                           0.000000E+00
  max size                           3.326976E+06
  average size                     211.354969E+03
 MPI breakdown and total messages size (bytes):
             size <=      128              903112                    81088
       128 < size <=     8192              236824               1672147232
      8192 < size <=    32768               88928               1592294536
     32768 < size <=   131072              119168              13260835728
    131072 < size <=  4194304              177408             305884709312
   4194304 < size <= 16777216                   0                        0
  16777216 < size                               0                        0
 -------------------------------------------------------------------------------

 *** WARNING in dbcsr/mm/dbcsr_mm.F:268 :: Using a non-square number of ***
 *** MPI ranks might lead to poor performance.                          ***
 *** Used ranks: 32                                                     ***
 *** Suggested: 36 64                                                   ***

 -------------------------------------------------------------------------------
 
 MEMORY| Estimated peak process memory [MiB]                                 473

 -------------------------------------------------------------------------------
 -                                                                             -
 -                         MESSAGE PASSING PERFORMANCE                         -
 -                                                                             -
 -------------------------------------------------------------------------------

 ROUTINE             CALLS      AVE VOLUME [Bytes]
 MP_Group              266
 MP_Bcast             2908                 562027.
 MP_Allreduce        16934                    363.
 MP_Sync               337
 MP_Alltoall         12187                1272261.
 MP_ISendRecv         9734                  74733.
 MP_Wait            197496
 MP_comm_split         159
 MP_ISend           111430                 116490.
 MP_IRecv           110998                 117438.
 MP_Recv                14                 930304.
 MP_Memory          130980
 -------------------------------------------------------------------------------


 -------------------------------------------------------------------------------
 -                                                                             -
 -                           R E F E R E N C E S                               -
 -                                                                             -
 -------------------------------------------------------------------------------
 
 CP2K version 6.1, the CP2K developers group (2018).
 CP2K is freely available from https://www.cp2k.org/ .

 Schuett, Ole; Messmer, Peter; Hutter, Juerg; VandeVondele, Joost. 
 Electronic Structure Calculations on Graphics Processing Units, John Wiley & Sons, Ltd, 173-190 (2016). 
 GPU-Accelerated Sparse Matrix-Matrix Multiplication for Linear Scaling Density Functional Theory.
 http://dx.doi.org/10.1002/9781118670712.ch8


 Borstnik, U; VandeVondele, J; Weber, V; Hutter, J. 
 PARALLEL COMPUTING, 40 (5-6), 47-58 (2014). 
 Sparse matrix multiplication: The distributed block-compressed sparse
 row library.
 http://dx.doi.org/10.1016/j.parco.2014.03.012


 Hutter, J; Iannuzzi, M; Schiffmann, F; VandeVondele, J. 
 WILEY INTERDISCIPLINARY REVIEWS-COMPUTATIONAL MOLECULAR SCIENCE, 4 (1), 15-25 (2014). 
 CP2K: atomistic simulations of condensed matter systems.
 http://dx.doi.org/10.1002/wcms.1159


 Sabatini, R; Gorni, T; de Gironcoli, S. 
 Phys. Rev. B, 87 (4), 041108(R) (2013). 
 Nonlocal van der Waals density functional made simple and efficient.
 http://dx.doi.org/10.1103/PhysRevB.87.041108


 Guidon, M; Hutter, J; VandeVondele, J. 
 JOURNAL OF CHEMICAL THEORY AND COMPUTATION, 6 (8), 2348-2364 (2010). 
 Auxiliary Density Matrix Methods for Hartree-Fock Exchange Calculations.
 http://dx.doi.org/10.1021/ct1002225


 Guidon, M; Hutter, J; VandeVondele, J. 
 JOURNAL OF CHEMICAL THEORY AND COMPUTATION, 5 (11), 3010-3021 (2009). 
 Robust Periodic Hartree-Fock Exchange for Large-Scale Simulations Using
 Gaussian Basis Sets.
 http://dx.doi.org/10.1021/ct900494g


 Roman-Perez, G; Soler, JM. 
 Phys. Rev. Lett., 103 (9), 096102 (2009). 
 Efficient Implementation of a van der Waals Density Functional:
 Application to Double-Wall Carbon Nanotubes.
 http://dx.doi.org/10.1103/PhysRevLett.103.096102


 Guidon, M; Schiffmann, F; Hutter, J; VandeVondele, J. 
 JOURNAL OF CHEMICAL PHYSICS, 128 (21), 214104 (2008). 
 Ab initio molecular dynamics using hybrid density functionals.
 http://dx.doi.org/10.1063/1.2931945


 VandeVondele, J; Hutter, J. 
 JOURNAL OF CHEMICAL PHYSICS, 127 (11), 114105 (2007). 
 Gaussian basis sets for accurate calculations on molecular systems in
 gas and condensed phases.
 http://dx.doi.org/10.1063/1.2770708


 Krack, M. 
 THEORETICAL CHEMISTRY ACCOUNTS, 114 (1-3), 145-152 (2005). 
 Pseudopotentials for H to Kr optimized for gradient-corrected
 exchange-correlation functionals.
 http://dx.doi.org/10.1007/s00214-005-0655-y


 VandeVondele, J; Krack, M; Mohamed, F; Parrinello, M; Chassaing, T;
 Hutter, J. COMPUTER PHYSICS COMMUNICATIONS, 167 (2), 103-128 (2005). 
 QUICKSTEP: Fast and accurate density functional calculations using a
 mixed Gaussian and plane waves approach.
 http://dx.doi.org/10.1016/j.cpc.2004.12.014


 Frigo, M; Johnson, SG. 
 PROCEEDINGS OF THE IEEE, 93 (2), 216-231 (2005). 
 The design and implementation of FFTW3.
 http://dx.doi.org/10.1109/JPROC.2004.840301


 Heyd, J; Scuseria, GE. 
 JOURNAL OF CHEMICAL PHYSICS, 120 (16), 7274-7280 (2004). 
 Assessment and validation of a screened Coulomb hybrid density
 functional.
 http://dx.doi.org/10.1063/1.1668634


 VandeVondele, J; Hutter, J. 
 JOURNAL OF CHEMICAL PHYSICS, 118 (10), 4365-4369 (2003). 
 An efficient orbital transformation method for electronic structure
 calculations.
 http://dx.doi.org/10.1063/1.1543154


 Hartwigsen, C; Goedecker, S; Hutter, J. 
 PHYSICAL REVIEW B, 58 (7), 3641-3662 (1998). 
 Relativistic separable dual-space Gaussian pseudopotentials from H to Rn.
 http://dx.doi.org/10.1103/PhysRevB.58.3641


 Lippert, G; Hutter, J; Parrinello, M. 
 MOLECULAR PHYSICS, 92 (3), 477-487 (1997). 
 A hybrid Gaussian and plane wave density functional scheme.
 http://dx.doi.org/10.1080/002689797170220


 Perdew, JP; Burke, K; Ernzerhof, M. 
 PHYSICAL REVIEW LETTERS, 77 (18), 3865-3868 (1996). 
 Generalized gradient approximation made simple.
 http://dx.doi.org/10.1103/PhysRevLett.77.3865


 Goedecker, S; Teter, M; Hutter, J. 
 PHYSICAL REVIEW B, 54 (3), 1703-1710 (1996). 
 Separable dual-space Gaussian pseudopotentials.
 http://dx.doi.org/10.1103/PhysRevB.54.1703


 -------------------------------------------------------------------------------
 -                                                                             -
 -                                T I M I N G                                  -
 -                                                                             -
 -------------------------------------------------------------------------------
 SUBROUTINE                       CALLS  ASD         SELF TIME        TOTAL TIME
                                MAXIMUM       AVERAGE  MAXIMUM  AVERAGE  MAXIMUM
 CP2K                                 1  1.0    0.083    0.090  695.815  695.816
 qs_energies                          1  2.0    0.000    0.000  694.714  694.715
 scf_env_do_scf                       1  3.0    0.000    0.000  444.970  444.970
 scf_env_do_scf_inner_loop           19  4.0    0.001    0.001  365.682  365.692
 dbcsr_multiply_generic            2270  8.5    0.147    0.149  348.773  349.115
 qs_ks_update_qs_env                 20  5.0    0.000    0.000  327.156  327.157
 rebuild_ks_matrix                   19  6.0    0.000    0.000  327.091  327.092
 qs_ks_build_kohn_sham_matrix        19  7.0    0.004    0.013  327.090  327.091
 scf_post_calculation_gpw             1  3.0    0.000    0.000  247.342  247.343
 make_lumo                            1  4.0    0.000    0.000  246.505  246.505
 ot_eigensolver                       2  5.0    0.002    0.003  245.877  245.878
 hfx_ks_matrix                       19  8.0    0.001    0.001  185.894  185.941
 integrate_four_center               19  9.0    0.107    0.333  185.831  185.877
 multiply_cannon                   2270  9.5    0.401    0.417  184.573  185.369
 integrate_four_center_main          19 10.0    0.006    0.007  173.535  176.753
 integrate_four_center_bin         1216 11.0  173.528  176.746  173.528  176.746
 mp_deallocate_d                  37052 12.7  172.403  172.977  172.403  172.977
 ot_mini                            131  6.3    0.001    0.001  165.409  165.413
 qs_ot_get_derivative                77  7.5    0.001    0.001  148.495  148.516
 dbcsr_destroy                    32133 10.3    0.116    0.120  137.270  137.528
 mp_deallocate_i                  28634 12.6  130.352  131.579  130.352  131.579
 make_m2s                          4540  9.5    0.143    0.146  121.773  122.606
 dbcsr_data_release              157268 12.1    0.480    0.541  101.954  102.075
 qs_vxc_create                       38  8.0    0.002    0.003   96.940   96.964
 qs_scf_new_mos                      19  5.0    0.000    0.000   91.835   91.842
 qs_scf_loop_do_ot                   19  6.0    0.000    0.000   91.835   91.842
 ot_scf_mini                         19  7.0    0.001    0.001   84.908   84.912
 qs_ot_get_derivative_diag           56  8.3    0.002    0.002   81.635   81.645
 xc_rho_set_and_dset_create          38 10.0    0.333    0.350   77.068   80.997
 init_scf_loop                        1  4.0    0.000    0.000   79.274   79.274
 make_images                       4540 10.5    0.225    0.237   75.755   76.590
 qs_ot_get_p                        156  6.5    0.001    0.001   73.070   73.384
 setup_buffer_matrices             4540 10.5    0.089    0.093   66.206   66.298
 xc_functional_eval                  95 11.0    0.001    0.001   61.771   65.660
 dbcsr_create_new                 33338 11.2    0.180    0.185   63.878   64.362
 dbcsr_make_index_exist           33338 12.2    0.091    0.093   62.629   63.147
 xc_vxc_pw_create                    20  9.0    0.342    0.373   56.310   56.310
 dbcsr_make_images_dense           3906 10.8    0.070    0.073   45.809   45.921
 qs_ot_get_orbitals                 154  6.5    0.001    0.001   44.416   44.447
 pw_transfer                       1961 10.1    0.120    0.149   38.807   44.220
 fft_wrap_pw1pw2                   1761 11.1    0.015    0.018   38.409   43.831
 fft_wrap_pw1pw2_400                605 12.3    3.239    3.903   33.908   39.251
 xpbe_hole_t_c_lr_lsd_eval           38 12.0   34.393   37.131   34.393   37.131
 calculate_rho_elec                  78  7.5   17.313   17.580   36.699   36.712
 dbcsr_special_finalize            6810 11.5    0.027    0.027   34.074   34.868
 fft3d_ps                          1761 13.1   15.752   16.286   28.740   34.321
 xc_exc_calc                         18  9.0    0.033    0.034   34.277   34.277
 qs_ot_p2m_diag                     117  7.3    0.006    0.006   33.924   33.964
 buffer_matrices_ensure_size       4540 10.5    0.635    0.660   30.901   31.473
 qs_ot_get_derivative_taylor         21  9.0    0.001    0.001   31.030   31.040
 quick_finalize                    6680 12.5    0.033    0.037   29.690   30.490
 dbcsr_switch_data_area           17952 12.5    0.022    0.023   26.929   27.043
 xwpbe_lsd_eval                      38 12.0   23.718   25.847   23.718   25.847
 mp_waitall_1                    192282 11.9   23.185   23.914   23.185   23.914
 qs_rho_update_rho                   20  5.0    0.000    0.000   23.666   23.669
 admm_mo_calc_rho_aux                19  8.0    0.000    0.000   21.566   21.596
 apply_preconditioner_dbcsr          83  8.5    0.000    0.000   18.039   18.124
 apply_single                        83  9.5    0.000    0.000   18.039   18.124
 density_rs2pw                       78  8.5    0.005    0.006   17.452   17.873
 multiply_cannon_metrocomm3       18160 10.5    0.073    0.076   16.967   17.759
 ot_new_cg_direction                 67  7.3    0.001    0.001   16.809   16.809
 sum_up_and_integrate                10  8.0    0.135    0.142   16.429   16.432
 integrate_v_rspace                  40  9.0    8.174    8.287   16.291   16.307
 mp_alltoall_z22v                  1761 15.1    8.701   15.398    8.701   15.398
 -------------------------------------------------------------------------------

 The number of warnings for this run is : 2
 
 -------------------------------------------------------------------------------
  **** **** ******  **  PROGRAM ENDED AT                 2024-03-16 18:11:57.267
 ***** ** ***  *** **   PROGRAM RAN ON                                      tc22
 **    ****   ******    PROGRAM RAN BY                                  fambrosi
 ***** **    ** ** **   PROGRAM PROCESS ID                                 15327
  **** **  *******  **  PROGRAM STOPPED IN          /scratch/fambrosi.55166.tccw
