 DBCSR| Multiplication driver                                               BLAS
 DBCSR| Multrec recursion limit                                              512
 DBCSR| Multiplication stack size                                           1000
 DBCSR| Maximum elements for images                                    UNLIMITED
 DBCSR| Multiplicative factor virtual images                                   1
 DBCSR| Multiplication size stacks                                             3
 DBCSR| Number of 3D layers                                               SINGLE
 DBCSR| Use MPI memory allocation                                              T
 DBCSR| Use RMA algorithm                                                      F
 DBCSR| Use Communication thread                                               T
 DBCSR| Communication thread load                                             87


  **** **** ******  **  PROGRAM STARTED AT               2024-03-16 15:54:50.817
 ***** ** ***  *** **   PROGRAM STARTED ON                                  tc22
 **    ****   ******    PROGRAM STARTED BY                              fambrosi
 ***** **    ** ** **   PROGRAM PROCESS ID                                 12873
  **** **  *******  **  PROGRAM STARTED IN          /scratch/fambrosi.55145.tccw

 CP2K| version string:                                          CP2K version 6.1
 CP2K| source code revision number:                                    svn:18464
 CP2K| cp2kflags: libint fftw3 libxc parallel mpi3 scalapack has_no_shared_glibc
 CP2K|             libderiv_max_am1=5 libint_max_am=6 max_contr=4 mkl
 CP2K| is freely available from                            https://www.cp2k.org/
 CP2K| Program compiled at                         Mon Jun 25 12:26:44 CEST 2018
 CP2K| Program compiled on                                                  tccw
 CP2K| Program compiled for                     Linux-x86-64-intel.MPI-OPENMP.O2
 CP2K| Data directory path                           /home/edoardo/cp2k-6.1/data
 CP2K| Input file name        /home/fambrosi/hydroxyl/test-koopman/anion/hyb4/el
 
 GLOBAL| Force Environment number                                              1
 GLOBAL| Basis set file name               /usr/local/cp2k-6.1/data/BASIS_MOLOPT
 GLOBAL| Potential file name             /usr/local/cp2k-6.1/data/GTH_POTENTIALS
 GLOBAL| MM Potential file name                                     MM_POTENTIAL
 GLOBAL| Coordinate file name                                      __STD_INPUT__
 GLOBAL| Method name                                                        CP2K
 GLOBAL| Project name                                               water+I-.dyn
 GLOBAL| Preferred FFT library                                             FFTW3
 GLOBAL| Preferred diagonalization lib.                                       SL
 GLOBAL| Run type                                                         ENERGY
 GLOBAL| All-to-all communication in single precision                          F
 GLOBAL| FFTs using library dependent lengths                                  T
 GLOBAL| Global print level                                                  LOW
 GLOBAL| Total number of message passing processes                            32
 GLOBAL| Number of threads for this process                                    1
 GLOBAL| This output is from process                                           0
 GLOBAL| CPU model name :  Intel(R) Xeon(R) CPU E5-2683 v4 @ 2.10GHz

 MEMORY| system memory details [Kb]
 MEMORY|                        rank 0           min           max       average
 MEMORY| MemTotal            264564496     264564496     264564496     264564496
 MEMORY| MemFree              74113752      74113752      74113752      74113752
 MEMORY| Buffers                185688        185688        185688        185688
 MEMORY| Cached              181593908     181593908     181593908     181593908
 MEMORY| Slab                  5761484       5761484       5761484       5761484
 MEMORY| SReclaimable          5695864       5695864       5695864       5695864
 MEMORY| MemLikelyFree       261589212     261589212     261589212     261589212

 
 GENERATE|  Preliminary Number of Bonds generated:                             0
 GENERATE|  Achieved consistency in connectivity generation.

 *******************************************************************************
 *******************************************************************************
 **                                                                           **
 **     #####                         ##              ##                      **
 **    ##   ##            ##          ##              ##                      **
 **   ##     ##                       ##            ######                    **
 **   ##     ##  ##   ##  ##   #####  ##  ##   ####   ##    #####    #####    **
 **   ##     ##  ##   ##  ##  ##      ## ##   ##      ##   ##   ##  ##   ##   **
 **   ##  ## ##  ##   ##  ##  ##      ####     ###    ##   ######   ######    **
 **    ##  ###   ##   ##  ##  ##      ## ##      ##   ##   ##       ##        **
 **     #######   #####   ##   #####  ##  ##  ####    ##    #####   ##        **
 **           ##                                                    ##        **
 **                                                                           **
 **                                                ... make the atoms dance   **
 **                                                                           **
 **            Copyright (C) by CP2K developers group (2000 - 2018)           **
 **                                                                           **
 *******************************************************************************


 TOTAL NUMBERS AND MAXIMUM NUMBERS

  Total number of            - Atomic kinds:                                   2
                             - Atoms:                                        191
                             - Shell sets:                                  1146
                             - Shells:                                      1338
                             - Primitive Cartesian functions:               1528
                             - Cartesian basis functions:                   4081
                             - Spherical basis functions:                   3634

  Maximum angular momentum of- Orbital basis functions:                        3
                             - Local part of the GTH pseudopotential:          2
                             - Non-local part of the GTH pseudopotential:      0

  AUX_FIT ADMM-Basis: 
  Total number of            - Shell sets:                                   510
                             - Shells:                                       510
                             - Primitive Cartesian functions:                765
                             - Cartesian basis functions:                    766
                             - Spherical basis functions:                    766
                               Maximum angular momentum                        1


 SCF PARAMETERS         Density guess:                                   RESTART
                        --------------------------------------------------------
                        max_scf:                                              50
                        max_scf_history:                                       0
                        max_diis:                                              4
                        --------------------------------------------------------
                        eps_scf:                                        1.00E-05
                        eps_scf_history:                                0.00E+00
                        eps_diis:                                       1.00E-01
                        eps_eigval:                                     1.00E-05
                        --------------------------------------------------------
                        level_shift [a.u.]:                                 0.00
                        --------------------------------------------------------
                        Outer loop SCF in use 
                        No variables optimised in outer loop
                        eps_scf                                         1.00E-05
                        max_scf                                               50
                        No outer loop optimization
                        step_size                                       5.00E-01

 Number of electrons:                                                        512
 Number of occupied orbitals:                                                256
 Number of molecular orbitals:                                               256

 Number of orbital functions:                                               3634
 Number of independent orbital functions:                                   3634

 Extrapolation method: initial_guess


 SCF WAVEFUNCTION OPTIMIZATION

  ----------------------------------- OT ---------------------------------------
  Minimizer      : CG                  : conjugate gradient
  Preconditioner : FULL_SINGLE_INVERSE : inversion of 
                                         H + eS - 2*(Sc)(c^T*H*c+const)(Sc)^T
  Precond_solver : DEFAULT
  Line search    : 2PNT                : 2 energies, one gradient
  stepsize       :    0.08000000                  energy_gap     :    0.08000000
  eps_taylor     :   0.10000E-15                  max_taylor     :             4
  ----------------------------------- OT ---------------------------------------

  Step     Update method      Time    Convergence         Total energy    Change
  ------------------------------------------------------------------------------

 *** WARNING in hfx_energy_potential.F:605 :: The Kohn Sham matrix is not  ***
 *** 100% occupied. This may result in incorrect Hartree-Fock results. Try ***
 *** to decrease EPS_PGF_ORB and EPS_FILTER_MATRIX in the QS section. For  ***
 *** more information see FAQ: https://www.cp2k.org/faq:hfx_eps_warning    ***

     1 OT CG       0.80E-01   72.7     0.00148281     -1099.4587357744 -1.10E+03
     2 OT LS       0.17E+00    9.3                    -1099.5838799272
     3 OT CG       0.17E+00   14.1     0.00059312     -1099.6325690120 -1.74E-01
     4 OT LS       0.67E-01    9.2                    -1099.6172554416
     5 OT CG       0.67E-01   13.7     0.00022536     -1099.6434931157 -1.09E-02
     6 OT LS       0.79E-01    9.2                    -1099.6453192115
     7 OT CG       0.79E-01   13.8     0.00010988     -1099.6453659552 -1.87E-03
     8 OT LS       0.72E-01    9.1                    -1099.6457694358
     9 OT CG       0.72E-01   13.7     0.00004785     -1099.6457729241 -4.07E-04
    10 OT LS       0.84E-01    9.3                    -1099.6458608510
    11 OT CG       0.84E-01   13.8     0.00001983     -1099.6458625847 -8.97E-05
    12 OT LS       0.85E-01    9.1                    -1099.6458780294
    13 OT CG       0.85E-01   13.9     0.00000899     -1099.6458780296 -1.54E-05

  *** SCF run converged in    13 steps ***


  Electronic density on regular grids:       -511.9999999999        0.0000000001
  Core density on regular grids:              510.9999999998       -0.0000000002
  Total charge density on r-space grids:       -1.0000000001
  Total charge density g-space grids:          -1.0000000001

  Overlap energy of the core charge distribution:               0.00000190354231
  Self energy of the core charge distribution:              -2836.80744583234036
  Core Hamiltonian energy:                                    823.14011585690957
  Hartree energy:                                            1182.00728071278172
  Exchange-correlation energy:                               -170.11422876889219
  Hartree-Fock Exchange energy:                              -100.01733679682698
  Dispersion energy:                                            2.14573489524047

  Total energy:                                             -1099.64587802958545

  outer SCF iter =    1 RMS gradient =   0.90E-05 energy =      -1099.6458780296
  outer SCF loop converged in   1 iterations or   13 steps

  
  Eigenvalues of the occupied subspace spin            1
 ---------------------------------------------
      -1.02829660     -1.02253122     -1.01941977     -1.01850142
      -1.01364642     -1.00862839     -1.00374321     -1.00210688
      -1.00086126     -0.99969887     -0.99897579     -0.99835539
      -0.99673610     -0.99609312     -0.99348081     -0.99263584
      -0.99058936     -0.99000564     -0.98894165     -0.98824999
      -0.98715377     -0.98664637     -0.98644520     -0.98525774
      -0.98429195     -0.98285667     -0.98189695     -0.98090438
      -0.98048304     -0.97908264     -0.97772182     -0.97654384
      -0.97616179     -0.97504993     -0.97396339     -0.97380410
      -0.97304468     -0.97169643     -0.97070707     -0.97013262
      -0.96945594     -0.96845261     -0.96788977     -0.96688673
      -0.96606622     -0.96469625     -0.96265330     -0.95997973
      -0.95964351     -0.95915961     -0.95810332     -0.95721180
      -0.95690563     -0.95625925     -0.95468116     -0.95384151
      -0.95336931     -0.94820941     -0.94747967     -0.94403729
      -0.94147237     -0.94088457     -0.92317130     -0.83753105
      -0.49664584     -0.49597879     -0.49330336     -0.49136907
      -0.48759507     -0.48380129     -0.48125574     -0.47875018
      -0.47705599     -0.47499723     -0.47468801     -0.47398525
      -0.47263817     -0.47182695     -0.47142632     -0.47025075
      -0.46891884     -0.46557121     -0.46520554     -0.46430248
      -0.46380251     -0.46262237     -0.46198202     -0.46073291
      -0.46001488     -0.45912017     -0.45826903     -0.45673576
      -0.45549233     -0.45456837     -0.45211019     -0.45160203
      -0.45026233     -0.44834649     -0.44798499     -0.44756497
      -0.44702139     -0.44562751     -0.44502952     -0.44420084
      -0.44290743     -0.44212006     -0.44111676     -0.43959507
      -0.43865327     -0.43796326     -0.43705021     -0.43690560
      -0.43603926     -0.43467016     -0.43305661     -0.43228910
      -0.43114682     -0.43057719     -0.42801625     -0.42637015
      -0.42508737     -0.42021670     -0.41963725     -0.41719846
      -0.41618550     -0.41318954     -0.41092987     -0.39093903
      -0.38713569     -0.38589237     -0.38517270     -0.37932066
      -0.37516100     -0.37242024     -0.37184272     -0.37033063
      -0.36760257     -0.36613682     -0.36552606     -0.36170667
      -0.36053886     -0.35973590     -0.35875527     -0.35680539
      -0.35425787     -0.35372535     -0.35083934     -0.34876148
      -0.34668721     -0.34587153     -0.34384330     -0.34327183
      -0.34063140     -0.33920935     -0.33848281     -0.33776333
      -0.33649107     -0.33470475     -0.33328174     -0.33182718
      -0.33090736     -0.33053574     -0.32776298     -0.32545730
      -0.32426485     -0.32238454     -0.32125429     -0.31908472
      -0.31673555     -0.31562340     -0.31446326     -0.31306644
      -0.31112654     -0.30966845     -0.30892996     -0.30744618
      -0.30648906     -0.30452150     -0.30277790     -0.30094216
      -0.29788864     -0.29648013     -0.29554173     -0.29259994
      -0.29144068     -0.29060088     -0.28905367     -0.28572432
      -0.28443099     -0.28085410     -0.27958756     -0.27871097
      -0.27751232     -0.27589181     -0.27511541     -0.27029884
      -0.26790798     -0.26723002     -0.26601212     -0.26537496
      -0.26430166     -0.26356023     -0.26312582     -0.26294413
      -0.26152876     -0.26102320     -0.25738077     -0.25716715
      -0.25623397     -0.25550996     -0.25541724     -0.25477226
      -0.25425794     -0.25343192     -0.25267665     -0.25251062
      -0.25222544     -0.25056610     -0.25015993     -0.24931361
      -0.24900561     -0.24812683     -0.24762689     -0.24728086
      -0.24670228     -0.24529455     -0.24425873     -0.24384349
      -0.24338659     -0.24305598     -0.24249373     -0.24144611
      -0.24081749     -0.23928026     -0.23873156     -0.23820957
      -0.23748944     -0.23646006     -0.23619070     -0.23491212
      -0.23460795     -0.23381852     -0.23300091     -0.23192894
      -0.23138727     -0.23070601     -0.23018121     -0.22873000
      -0.22762601     -0.22732880     -0.22550962     -0.21717894
      -0.21240632     -0.20890868     -0.16052246     -0.15600448
 Fermi Energy [eV] :   -4.245098
  
  Lowest Eigenvalues of the unoccupied subspace spin            1
 -----------------------------------------------------
  Reached convergence in           47  iterations 
       0.10118434
  
 HOMO - LUMO gap [eV] :    6.998464

 ENERGY| Total FORCE_EVAL ( QS ) energy (a.u.):            -1099.645878029585447


 -------------------------------------------------------------------------------
 -                                                                             -
 -                                DBCSR STATISTICS                             -
 -                                                                             -
 -------------------------------------------------------------------------------
 COUNTER                                    TOTAL       BLAS       SMM       ACC
 flops     1 x     1 x   442                80444     100.0%      0.0%      0.0%
 flops    65 x     1 x    33               102960     100.0%      0.0%      0.0%
 flops    64 x     1 x    33               304128     100.0%      0.0%      0.0%
 flops     1 x     1 x   456               580944     100.0%      0.0%      0.0%
 flops    65 x     1 x    32               698880     100.0%      0.0%      0.0%
 flops    65 x     1 x   442              1379040     100.0%      0.0%      0.0%
 flops   898 x     1 x    33              1422432     100.0%      0.0%      0.0%
 flops    64 x     1 x    32              2326528     100.0%      0.0%      0.0%
 flops    65 x    33 x   442              3792360     100.0%      0.0%      0.0%
 flops   912 x     1 x    33              4333824     100.0%      0.0%      0.0%
 flops    64 x     1 x   442              4526080     100.0%      0.0%      0.0%
 flops    65 x     1 x   456              9959040     100.0%      0.0%      0.0%
 flops   898 x     1 x    32             10574848     100.0%      0.0%      0.0%
 flops    64 x    33 x   442             11202048     100.0%      0.0%      0.0%
 flops   898 x     1 x   442             19051968     100.0%      0.0%      0.0%
 flops    65 x    32 x   442             25742080     100.0%      0.0%      0.0%
 flops    65 x    33 x   456             27387360     100.0%      0.0%      0.0%
 flops   912 x     1 x    32             32219136     100.0%      0.0%      0.0%
 flops    32 x    32 x   442             32587776     100.0%      0.0%      0.0%
 flops    64 x     1 x   456             32686080     100.0%      0.0%      0.0%
 flops   898 x    33 x   442             52392912     100.0%      0.0%      0.0%
 flops   912 x     1 x   442             58046976     100.0%      0.0%      0.0%
 flops    64 x    33 x   456             80898048     100.0%      0.0%      0.0%
 flops   898 x     1 x   456            137587968     100.0%      0.0%      0.0%
 flops   912 x    33 x   442            159629184     100.0%      0.0%      0.0%
 flops    65 x    32 x   456            185902080     100.0%      0.0%      0.0%
 flops     2 x     2 x    32            216399872     100.0%      0.0%      0.0%
 flops    32 x    32 x   456            235339776     100.0%      0.0%      0.0%
 flops    14 x    32 x    32            262176768     100.0%      0.0%      0.0%
 flops    29 x    32 x    32            273678336     100.0%      0.0%      0.0%
 flops   898 x    33 x   456            378366912     100.0%      0.0%      0.0%
 flops   912 x     1 x   456            419198976     100.0%      0.0%      0.0%
 flops     8 x     2 x    32            424280064     100.0%      0.0%      0.0%
 flops     2 x     8 x    32            424280064     100.0%      0.0%      0.0%
 flops    14 x     1 x    14            608345976     100.0%      0.0%      0.0%
 flops    29 x     1 x    14            638618512     100.0%      0.0%      0.0%
 flops    14 x     1 x    29            638618512     100.0%      0.0%      0.0%
 flops    29 x     1 x    29            668278784     100.0%      0.0%      0.0%
 flops     8 x     8 x    32            683278336     100.0%      0.0%      0.0%
 flops   912 x    33 x   456           1152797184     100.0%      0.0%      0.0%
 flops   898 x    32 x   442           1981404672     100.0%      0.0%      0.0%
 flops    64 x    32 x   442           2103721984     100.0%      0.0%      0.0%
 flops    64 x    32 x    32           2717908992     100.0%      0.0%      0.0%
 flops   898 x    32 x    32           5296619520     100.0%      0.0%      0.0%
 flops   912 x    32 x   442           6036885504     100.0%      0.0%      0.0%
 flops    14 x    14 x    32          12143595520     100.0%      0.0%      0.0%
 flops    14 x    29 x    32          12639864832     100.0%      0.0%      0.0%
 flops    29 x    14 x    32          12645685248     100.0%      0.0%      0.0%
 flops    29 x    29 x    32          13434470400     100.0%      0.0%      0.0%
 flops   898 x    32 x   456          14309148672     100.0%      0.0%      0.0%
 flops    64 x    32 x   456          15192489984     100.0%      0.0%      0.0%
 flops   912 x    32 x    32          16137584640     100.0%      0.0%      0.0%
 flops    14 x    32 x    14          43349354496     100.0%      0.0%      0.0%
 flops   912 x    32 x   456          43596693504     100.0%      0.0%      0.0%
 flops    29 x    32 x    14          45506506752     100.0%      0.0%      0.0%
 flops    14 x    32 x    29          45506506752     100.0%      0.0%      0.0%
 flops    29 x    32 x    29          47620030464     100.0%      0.0%      0.0%
 flops inhomo. stacks                     1032482     100.0%      0.0%      0.0%
 flops total                       348.138578E+09     100.0%      0.0%      0.0%
 flops max/rank                     11.618403E+09     100.0%      0.0%      0.0%
 matmuls inhomo. stacks                       781     100.0%      0.0%      0.0%
 matmuls total                           15460044     100.0%      0.0%      0.0%
 number of processed stacks                118581     100.0%      0.0%      0.0%
 average stack size                                   130.4       0.0       0.0
 marketing flops                   402.538332E+09
 -------------------------------------------------------------------------------
 # multiplications                            881
 max memory usage/rank             417.484800E+06
 # max total images/rank                        2
 # max 3D layers                                1
 # MPI messages exchanged                  592032
 MPI messages size (bytes):
  total size                       130.416607E+09
  min size                           0.000000E+00
  max size                           3.326976E+06
  average size                     220.286422E+03
 MPI breakdown and total messages size (bytes):
             size <=      128              367304                    31920
       128 < size <=     8192               82264                563149328
      8192 < size <=    32768               29792                536139072
     32768 < size <=   131072               43232               4832304064
    131072 < size <=  4194304               69440             124485517856
   4194304 < size <= 16777216                   0                        0
  16777216 < size                               0                        0
 -------------------------------------------------------------------------------

 *** WARNING in dbcsr/mm/dbcsr_mm.F:268 :: Using a non-square number of ***
 *** MPI ranks might lead to poor performance.                          ***
 *** Used ranks: 32                                                     ***
 *** Suggested: 36 64                                                   ***

 -------------------------------------------------------------------------------
 
 MEMORY| Estimated peak process memory [MiB]                                 399

 -------------------------------------------------------------------------------
 -                                                                             -
 -                         MESSAGE PASSING PERFORMANCE                         -
 -                                                                             -
 -------------------------------------------------------------------------------

 ROUTINE             CALLS      AVE VOLUME [Bytes]
 MP_Group              106
 MP_Bcast             1365                1190476.
 MP_Allreduce         6427                    618.
 MP_Sync               127
 MP_Alltoall          4913                1249510.
 MP_ISendRecv         3534                  73955.
 MP_Wait             76276
 MP_comm_split          55
 MP_ISend            43106                 119893.
 MP_IRecv            42926                 120922.
 MP_Recv                 7                 930304.
 MP_Memory           50826
 MP_Write_All            2                 614304.
 -------------------------------------------------------------------------------


 -------------------------------------------------------------------------------
 -                                                                             -
 -                           R E F E R E N C E S                               -
 -                                                                             -
 -------------------------------------------------------------------------------
 
 CP2K version 6.1, the CP2K developers group (2018).
 CP2K is freely available from https://www.cp2k.org/ .

 Schuett, Ole; Messmer, Peter; Hutter, Juerg; VandeVondele, Joost. 
 Electronic Structure Calculations on Graphics Processing Units, John Wiley & Sons, Ltd, 173-190 (2016). 
 GPU-Accelerated Sparse Matrix-Matrix Multiplication for Linear Scaling Density Functional Theory.
 http://dx.doi.org/10.1002/9781118670712.ch8


 Borstnik, U; VandeVondele, J; Weber, V; Hutter, J. 
 PARALLEL COMPUTING, 40 (5-6), 47-58 (2014). 
 Sparse matrix multiplication: The distributed block-compressed sparse
 row library.
 http://dx.doi.org/10.1016/j.parco.2014.03.012


 Hutter, J; Iannuzzi, M; Schiffmann, F; VandeVondele, J. 
 WILEY INTERDISCIPLINARY REVIEWS-COMPUTATIONAL MOLECULAR SCIENCE, 4 (1), 15-25 (2014). 
 CP2K: atomistic simulations of condensed matter systems.
 http://dx.doi.org/10.1002/wcms.1159


 Sabatini, R; Gorni, T; de Gironcoli, S. 
 Phys. Rev. B, 87 (4), 041108(R) (2013). 
 Nonlocal van der Waals density functional made simple and efficient.
 http://dx.doi.org/10.1103/PhysRevB.87.041108


 Guidon, M; Hutter, J; VandeVondele, J. 
 JOURNAL OF CHEMICAL THEORY AND COMPUTATION, 6 (8), 2348-2364 (2010). 
 Auxiliary Density Matrix Methods for Hartree-Fock Exchange Calculations.
 http://dx.doi.org/10.1021/ct1002225


 Guidon, M; Hutter, J; VandeVondele, J. 
 JOURNAL OF CHEMICAL THEORY AND COMPUTATION, 5 (11), 3010-3021 (2009). 
 Robust Periodic Hartree-Fock Exchange for Large-Scale Simulations Using
 Gaussian Basis Sets.
 http://dx.doi.org/10.1021/ct900494g


 Roman-Perez, G; Soler, JM. 
 Phys. Rev. Lett., 103 (9), 096102 (2009). 
 Efficient Implementation of a van der Waals Density Functional:
 Application to Double-Wall Carbon Nanotubes.
 http://dx.doi.org/10.1103/PhysRevLett.103.096102


 Guidon, M; Schiffmann, F; Hutter, J; VandeVondele, J. 
 JOURNAL OF CHEMICAL PHYSICS, 128 (21), 214104 (2008). 
 Ab initio molecular dynamics using hybrid density functionals.
 http://dx.doi.org/10.1063/1.2931945


 VandeVondele, J; Hutter, J. 
 JOURNAL OF CHEMICAL PHYSICS, 127 (11), 114105 (2007). 
 Gaussian basis sets for accurate calculations on molecular systems in
 gas and condensed phases.
 http://dx.doi.org/10.1063/1.2770708


 Krack, M. 
 THEORETICAL CHEMISTRY ACCOUNTS, 114 (1-3), 145-152 (2005). 
 Pseudopotentials for H to Kr optimized for gradient-corrected
 exchange-correlation functionals.
 http://dx.doi.org/10.1007/s00214-005-0655-y


 VandeVondele, J; Krack, M; Mohamed, F; Parrinello, M; Chassaing, T;
 Hutter, J. COMPUTER PHYSICS COMMUNICATIONS, 167 (2), 103-128 (2005). 
 QUICKSTEP: Fast and accurate density functional calculations using a
 mixed Gaussian and plane waves approach.
 http://dx.doi.org/10.1016/j.cpc.2004.12.014


 Frigo, M; Johnson, SG. 
 PROCEEDINGS OF THE IEEE, 93 (2), 216-231 (2005). 
 The design and implementation of FFTW3.
 http://dx.doi.org/10.1109/JPROC.2004.840301


 Heyd, J; Scuseria, GE. 
 JOURNAL OF CHEMICAL PHYSICS, 120 (16), 7274-7280 (2004). 
 Assessment and validation of a screened Coulomb hybrid density
 functional.
 http://dx.doi.org/10.1063/1.1668634


 VandeVondele, J; Hutter, J. 
 JOURNAL OF CHEMICAL PHYSICS, 118 (10), 4365-4369 (2003). 
 An efficient orbital transformation method for electronic structure
 calculations.
 http://dx.doi.org/10.1063/1.1543154


 Hartwigsen, C; Goedecker, S; Hutter, J. 
 PHYSICAL REVIEW B, 58 (7), 3641-3662 (1998). 
 Relativistic separable dual-space Gaussian pseudopotentials from H to Rn.
 http://dx.doi.org/10.1103/PhysRevB.58.3641


 Lippert, G; Hutter, J; Parrinello, M. 
 MOLECULAR PHYSICS, 92 (3), 477-487 (1997). 
 A hybrid Gaussian and plane wave density functional scheme.
 http://dx.doi.org/10.1080/002689797170220


 Perdew, JP; Burke, K; Ernzerhof, M. 
 PHYSICAL REVIEW LETTERS, 77 (18), 3865-3868 (1996). 
 Generalized gradient approximation made simple.
 http://dx.doi.org/10.1103/PhysRevLett.77.3865


 Goedecker, S; Teter, M; Hutter, J. 
 PHYSICAL REVIEW B, 54 (3), 1703-1710 (1996). 
 Separable dual-space Gaussian pseudopotentials.
 http://dx.doi.org/10.1103/PhysRevB.54.1703


 -------------------------------------------------------------------------------
 -                                                                             -
 -                                T I M I N G                                  -
 -                                                                             -
 -------------------------------------------------------------------------------
 SUBROUTINE                       CALLS  ASD         SELF TIME        TOTAL TIME
                                MAXIMUM       AVERAGE  MAXIMUM  AVERAGE  MAXIMUM
 CP2K                                 1  1.0    0.058    0.063  317.178  317.179
 qs_energies                          1  2.0    0.000    0.000  316.132  316.132
 scf_env_do_scf                       1  3.0    0.000    0.000  211.537  211.538
 qs_ks_update_qs_env                 14  5.0    0.000    0.000  172.055  172.056
 rebuild_ks_matrix                   13  6.0    0.000    0.000  172.031  172.031
 qs_ks_build_kohn_sham_matrix        13  7.0    0.002    0.002  172.030  172.031
 scf_env_do_scf_inner_loop           13  4.0    0.001    0.001  141.011  141.019
 dbcsr_multiply_generic             881  8.4    0.054    0.055  136.390  136.527
 hfx_ks_matrix                       13  8.0    0.000    0.000  120.732  120.759
 integrate_four_center               13  9.0    0.048    0.272  120.712  120.738
 integrate_four_center_main          13 10.0    0.004    0.005  110.762  112.253
 integrate_four_center_bin          832 11.0  110.757  112.249  110.757  112.249
 scf_post_calculation_gpw             1  3.0    0.000    0.001  103.093  103.094
 make_lumo                            1  4.0    0.000    0.000  102.064  102.064
 ot_eigensolver                       1  5.0    0.001    0.001  101.762  101.763
 multiply_cannon                    881  9.4    0.154    0.161   72.079   72.405
 init_scf_loop                        1  4.0    0.000    0.000   70.516   70.516
 mp_deallocate_d                  14364 12.6   66.971   67.193   66.971   67.193
 ot_mini                             60  6.4    0.000    0.000   63.773   63.775
 qs_ot_get_derivative                31  7.5    0.000    0.000   56.991   57.002
 dbcsr_destroy                    12527 10.2    0.044    0.045   53.264   53.363
 mp_deallocate_i                  11121 12.5   50.754   51.318   50.754   51.318
 make_m2s                          1762  9.4    0.052    0.053   47.116   47.405
 dbcsr_data_release               60827 12.0    0.192    0.216   39.354   39.478
 qs_vxc_create                       26  8.0    0.002    0.002   35.418   35.436
 qs_scf_new_mos                      13  5.0    0.000    0.000   29.967   29.972
 qs_scf_loop_do_ot                   13  6.0    0.000    0.000   29.967   29.971
 make_images                       1762 10.4    0.088    0.094   29.439   29.764
 xc_rho_set_and_dset_create          26 10.0    0.077    0.085   26.739   28.102
 qs_ot_get_derivative_diag           19  8.0    0.001    0.001   27.732   27.740
 qs_ot_get_p                         63  6.4    0.001    0.001   27.589   27.686
 ot_scf_mini                         13  7.0    0.001    0.001   27.646   27.649
 setup_buffer_matrices             1762 10.4    0.034    0.036   25.822   25.885
 dbcsr_create_new                 12992 11.0    0.069    0.071   24.866   25.038
 dbcsr_make_index_exist           12992 12.0    0.035    0.036   24.367   24.561
 xc_functional_eval                  65 11.0    0.000    0.001   21.550   22.857
 xc_vxc_pw_create                    14  9.0    0.068    0.073   19.684   19.685
 qs_ot_get_orbitals                  62  6.4    0.000    0.000   18.133   18.153
 dbcsr_make_images_dense           1500 10.7    0.026    0.027   17.601   17.652
 pw_transfer                        936 10.0    0.054    0.064   15.013   16.900
 fft_wrap_pw1pw2                    851 11.0    0.006    0.007   14.804   16.692
 qs_ot_get_derivative_taylor         12  9.2    0.000    0.000   14.578   14.588
 fft_wrap_pw1pw2_400                221 12.1    1.162    1.374   12.253   14.090
 dbcsr_special_finalize            2643 11.4    0.010    0.011   13.171   13.501
 fft3d_ps                           851 13.0    6.055    6.231   11.046   12.982
 calculate_rho_elec                  27  7.4    6.023    6.159   12.740   12.746
 xpbe_hole_t_c_lr_lda_eval           26 12.0   11.768   12.701   11.768   12.701
 buffer_matrices_ensure_size       1762 10.4    0.262    0.275   11.965   12.175
 quick_finalize                    2589 12.4    0.013    0.015   11.448   11.778
 xc_exc_calc                         12  9.0    0.022    0.023   11.638   11.638
 qs_ot_p2m_diag                      40  7.0    0.001    0.001   11.514   11.534
 dbcsr_switch_data_area            6924 12.4    0.009    0.009   10.354   10.422
 mp_waitall_1                     74362 11.8    9.376    9.755    9.376    9.755
 xwpbe_lda_eval                      26 12.0    8.090    8.805    8.090    8.805
 qs_rho_update_rho                   14  5.0    0.000    0.000    8.284    8.286
 admm_mo_calc_rho_aux                13  8.0    0.000    0.000    7.540    7.559
 apply_preconditioner_dbcsr          34  8.5    0.000    0.000    7.382    7.414
 apply_single                        34  9.5    0.000    0.000    7.382    7.414
 multiply_cannon_metrocomm3        7048 10.4    0.029    0.030    6.890    7.326
 integrate_four_center_load          13 10.0    0.000    0.000    7.079    7.080
 hfx_load_balance                     1 11.0    0.002    0.002    7.079    7.080
 ot_new_cg_direction                 31  7.5    0.000    0.000    6.737    6.737
 -------------------------------------------------------------------------------

 The number of warnings for this run is : 2
 
 -------------------------------------------------------------------------------
  **** **** ******  **  PROGRAM ENDED AT                 2024-03-16 16:00:08.516
 ***** ** ***  *** **   PROGRAM RAN ON                                      tc22
 **    ****   ******    PROGRAM RAN BY                                  fambrosi
 ***** **    ** ** **   PROGRAM PROCESS ID                                 12873
  **** **  *******  **  PROGRAM STOPPED IN          /scratch/fambrosi.55145.tccw
