 DBCSR| Multiplication driver                                               BLAS
 DBCSR| Multrec recursion limit                                              512
 DBCSR| Multiplication stack size                                           1000
 DBCSR| Maximum elements for images                                    UNLIMITED
 DBCSR| Multiplicative factor virtual images                                   1
 DBCSR| Multiplication size stacks                                             3
 DBCSR| Number of 3D layers                                               SINGLE
 DBCSR| Use MPI memory allocation                                              T
 DBCSR| Use RMA algorithm                                                      F
 DBCSR| Use Communication thread                                               T
 DBCSR| Communication thread load                                             87


  **** **** ******  **  PROGRAM STARTED AT               2024-03-14 23:42:10.778
 ***** ** ***  *** **   PROGRAM STARTED ON                                  tc23
 **    ****   ******    PROGRAM STARTED BY                              fambrosi
 ***** **    ** ** **   PROGRAM PROCESS ID                                 19973
  **** **  *******  **  PROGRAM STARTED IN          /scratch/fambrosi.55037.tccw

 CP2K| version string:                                          CP2K version 6.1
 CP2K| source code revision number:                                    svn:18464
 CP2K| cp2kflags: libint fftw3 libxc parallel mpi3 scalapack has_no_shared_glibc
 CP2K|             libderiv_max_am1=5 libint_max_am=6 max_contr=4 mkl
 CP2K| is freely available from                            https://www.cp2k.org/
 CP2K| Program compiled at                         Mon Jun 25 12:26:44 CEST 2018
 CP2K| Program compiled on                                                  tccw
 CP2K| Program compiled for                     Linux-x86-64-intel.MPI-OPENMP.O2
 CP2K| Data directory path                           /home/edoardo/cp2k-6.1/data
 CP2K| Input file name        /home/fambrosi/hydroxyl/test-koopman/radical/hyb5/
 
 GLOBAL| Force Environment number                                              1
 GLOBAL| Basis set file name               /usr/local/cp2k-6.1/data/BASIS_MOLOPT
 GLOBAL| Potential file name             /usr/local/cp2k-6.1/data/GTH_POTENTIALS
 GLOBAL| MM Potential file name                                     MM_POTENTIAL
 GLOBAL| Coordinate file name                                      __STD_INPUT__
 GLOBAL| Method name                                                        CP2K
 GLOBAL| Project name                                               water+I-.dyn
 GLOBAL| Preferred FFT library                                             FFTW3
 GLOBAL| Preferred diagonalization lib.                                       SL
 GLOBAL| Run type                                                         ENERGY
 GLOBAL| All-to-all communication in single precision                          F
 GLOBAL| FFTs using library dependent lengths                                  T
 GLOBAL| Global print level                                                  LOW
 GLOBAL| Total number of message passing processes                            32
 GLOBAL| Number of threads for this process                                    1
 GLOBAL| This output is from process                                           0
 GLOBAL| CPU model name :  Intel(R) Xeon(R) CPU E5-2683 v4 @ 2.10GHz

 MEMORY| system memory details [Kb]
 MEMORY|                        rank 0           min           max       average
 MEMORY| MemTotal            264564380     264564380     264564380     264564380
 MEMORY| MemFree              47932416      47932416      47932416      47932416
 MEMORY| Buffers                190752        190752        190752        190752
 MEMORY| Cached              207531044     207531044     207531044     207531044
 MEMORY| Slab                  5995376       5995376       5995376       5995376
 MEMORY| SReclaimable          5925120       5925120       5925120       5925120
 MEMORY| MemLikelyFree       261579332     261579332     261579332     261579332

 
 GENERATE|  Preliminary Number of Bonds generated:                             0
 GENERATE|  Achieved consistency in connectivity generation.

 *******************************************************************************
 *******************************************************************************
 **                                                                           **
 **     #####                         ##              ##                      **
 **    ##   ##            ##          ##              ##                      **
 **   ##     ##                       ##            ######                    **
 **   ##     ##  ##   ##  ##   #####  ##  ##   ####   ##    #####    #####    **
 **   ##     ##  ##   ##  ##  ##      ## ##   ##      ##   ##   ##  ##   ##   **
 **   ##  ## ##  ##   ##  ##  ##      ####     ###    ##   ######   ######    **
 **    ##  ###   ##   ##  ##  ##      ## ##      ##   ##   ##       ##        **
 **     #######   #####   ##   #####  ##  ##  ####    ##    #####   ##        **
 **           ##                                                    ##        **
 **                                                                           **
 **                                                ... make the atoms dance   **
 **                                                                           **
 **            Copyright (C) by CP2K developers group (2000 - 2018)           **
 **                                                                           **
 *******************************************************************************


 TOTAL NUMBERS AND MAXIMUM NUMBERS

  Total number of            - Atomic kinds:                                   2
                             - Atoms:                                        191
                             - Shell sets:                                  1146
                             - Shells:                                      1338
                             - Primitive Cartesian functions:               1528
                             - Cartesian basis functions:                   4081
                             - Spherical basis functions:                   3634

  Maximum angular momentum of- Orbital basis functions:                        3
                             - Local part of the GTH pseudopotential:          2
                             - Non-local part of the GTH pseudopotential:      0

  AUX_FIT ADMM-Basis: 
  Total number of            - Shell sets:                                   510
                             - Shells:                                       510
                             - Primitive Cartesian functions:                765
                             - Cartesian basis functions:                    766
                             - Spherical basis functions:                    766
                               Maximum angular momentum                        1


 SCF PARAMETERS         Density guess:                                   RESTART
                        --------------------------------------------------------
                        max_scf:                                              50
                        max_scf_history:                                       0
                        max_diis:                                              4
                        --------------------------------------------------------
                        eps_scf:                                        1.00E-05
                        eps_scf_history:                                0.00E+00
                        eps_diis:                                       1.00E-01
                        eps_eigval:                                     1.00E-05
                        --------------------------------------------------------
                        level_shift [a.u.]:                                 0.00
                        --------------------------------------------------------
                        Outer loop SCF in use 
                        No variables optimised in outer loop
                        eps_scf                                         1.00E-05
                        max_scf                                               50
                        No outer loop optimization
                        step_size                                       5.00E-01

 Spin 1

 Number of electrons:                                                        256
 Number of occupied orbitals:                                                256
 Number of molecular orbitals:                                               256

 Spin 2

 Number of electrons:                                                        255
 Number of occupied orbitals:                                                255
 Number of molecular orbitals:                                               255

 Number of orbital functions:                                               3634
 Number of independent orbital functions:                                   3634

 Extrapolation method: initial_guess


 SCF WAVEFUNCTION OPTIMIZATION

  ----------------------------------- OT ---------------------------------------
  Minimizer      : CG                  : conjugate gradient
  Preconditioner : FULL_SINGLE_INVERSE : inversion of 
                                         H + eS - 2*(Sc)(c^T*H*c+const)(Sc)^T
  Precond_solver : DEFAULT
  Line search    : 2PNT                : 2 energies, one gradient
  stepsize       :    0.08000000                  energy_gap     :    0.08000000
  eps_taylor     :   0.10000E-15                  max_taylor     :             4
  ----------------------------------- OT ---------------------------------------

  Step     Update method      Time    Convergence         Total energy    Change
  ------------------------------------------------------------------------------

 *** WARNING in hfx_energy_potential.F:605 :: The Kohn Sham matrix is not  ***
 *** 100% occupied. This may result in incorrect Hartree-Fock results. Try ***
 *** to decrease EPS_PGF_ORB and EPS_FILTER_MATRIX in the QS section. For  ***
 *** more information see FAQ: https://www.cp2k.org/faq:hfx_eps_warning    ***

     1 OT CG       0.80E-01   83.3     0.00070989     -1099.5610351590 -1.10E+03
     2 OT LS       0.32E+00   15.4                    -1099.6274185425
     3 OT CG       0.32E+00   24.0     0.00030714     -1099.7249008980 -1.64E-01
     4 OT LS       0.13E+00   15.5                    -1099.7093791400
     5 OT CG       0.13E+00   24.4     0.00026238     -1099.7366244603 -1.17E-02
     6 OT LS       0.76E-01   15.2                    -1099.7392777296
     7 OT CG       0.76E-01   25.1     0.00011377     -1099.7415059565 -4.88E-03
     8 OT LS       0.14E+00   15.4                    -1099.7428453606
     9 OT CG       0.14E+00   24.5     0.00007220     -1099.7432334234 -1.73E-03
    10 OT LS       0.76E-01   15.5                    -1099.7433033281
    11 OT CG       0.76E-01   24.4     0.00004200     -1099.7435994619 -3.66E-04
    12 OT LS       0.11E+00   15.3                    -1099.7437613885
    13 OT CG       0.11E+00   24.9     0.00002159     -1099.7437783502 -1.79E-04
    14 OT LS       0.10E+00   15.3                    -1099.7438219238
    15 OT CG       0.10E+00   24.4     0.00001560     -1099.7438221947 -4.38E-05
    16 OT LS       0.11E+00   15.5                    -1099.7438476339
    17 OT CG       0.11E+00   24.4     0.00001153     -1099.7438479517 -2.58E-05
    18 OT LS       0.14E+00   15.3                    -1099.7438649825
    19 OT CG       0.14E+00   24.7     0.00001314     -1099.7438657679 -1.78E-05
    20 OT LS       0.18E+00   15.3                    -1099.7438933644
    21 OT CG       0.18E+00   24.5     0.00001394     -1099.7438944098 -2.86E-05
    22 OT LS       0.32E+00   15.4                    -1099.7439411282
    23 OT CG       0.32E+00   24.2     0.00002393     -1099.7439528225 -5.84E-05
    24 OT LS       0.64E-01   15.3                    -1099.7434217464
    25 OT CG       0.64E-01   24.4     0.00001451     -1099.7439867778 -3.40E-05
    26 OT LS       0.17E+00   15.3                    -1099.7440070311
    27 OT CG       0.17E+00   25.0     0.00001306     -1099.7440197730 -3.30E-05
    28 OT LS       0.16E+00   15.4                    -1099.7440452476
    29 OT CG       0.16E+00   24.3     0.00001423     -1099.7440453041 -2.55E-05
    30 OT LS       0.11E+00   15.7                    -1099.7440604554
    31 OT CG       0.11E+00   24.5     0.00001133     -1099.7440654824 -2.02E-05
    32 OT LS       0.22E+00   15.3                    -1099.7440848399
    33 OT CG       0.22E+00   24.6     0.00001430     -1099.7440917972 -2.63E-05
    34 OT LS       0.25E+00   15.3                    -1099.7441388124
    35 OT CG       0.25E+00   24.6     0.00002461     -1099.7441395216 -4.77E-05
    36 OT LS       0.26E+00   15.5                    -1099.7442837159
    37 OT CG       0.26E+00   24.0     0.00003453     -1099.7442836409 -1.44E-04
    38 OT LS       0.13E+00   15.3                    -1099.7442769661
    39 OT CG       0.13E+00   24.1     0.00002934     -1099.7444347250 -1.51E-04
    40 OT LS       0.15E+00   15.2                    -1099.7445526901
    41 OT CG       0.15E+00   24.9     0.00002319     -1099.7445548848 -1.20E-04
    42 OT LS       0.17E+00   15.4                    -1099.7446364168
    43 OT CG       0.17E+00   24.0     0.00002193     -1099.7446376225 -8.27E-05
    44 OT LS       0.12E+00   15.6                    -1099.7446839517
    45 OT CG       0.12E+00   24.1     0.00001735     -1099.7446913470 -5.37E-05
    46 OT LS       0.13E+00   15.3                    -1099.7447278143
    47 OT CG       0.13E+00   26.5     0.00001104     -1099.7447281069 -3.68E-05
    48 OT LS       0.12E+00   15.3                    -1099.7447417247
    49 OT CG       0.12E+00   24.3     0.00000694     -1099.7447418258 -1.37E-05

  *** SCF run converged in    49 steps ***


  Electronic density on regular grids:       -510.9999999999        0.0000000001
  Core density on regular grids:              510.9999999998       -0.0000000002
  Total charge density on r-space grids:       -0.0000000001
  Total charge density g-space grids:          -0.0000000001

  Overlap energy of the core charge distribution:               0.00000347777266
  Self energy of the core charge distribution:              -2836.80744583234036
  Core Hamiltonian energy:                                    827.69723872592067
  Hartree energy:                                            1178.54719078998914
  Exchange-correlation energy:                               -170.84111324426220
  Hartree-Fock Exchange energy:                              -100.49010313015069
  Dispersion energy:                                            2.14948738723029

  Total energy:                                             -1099.74474182584026

  outer SCF iter =    1 RMS gradient =   0.69E-05 energy =      -1099.7447418258
  outer SCF loop converged in   1 iterations or   49 steps


  Integrated absolute spin density  :                               1.0765845515
  Ideal and single determinant S**2 :                    0.750000       0.753019

 The sum of alpha and beta density is written in cube file format to the file:

 water+I-.dyn-ELECTRON_DENSITY-1_0.cube

 The spin density is written in cube file format to the file:

 water+I-.dyn-SPIN_DENSITY-1_0.cube
  
  Eigenvalues of the occupied subspace spin            1
 ---------------------------------------------
      -1.03169833     -1.02306786     -1.01898661     -1.01599401
      -1.01469497     -1.01367853     -1.01333191     -1.01071371
      -1.00884420     -1.00745279     -1.00603358     -1.00535531
      -1.00502784     -1.00299636     -1.00156297     -1.00104694
      -0.99981637     -0.99934713     -0.99871323     -0.99691349
      -0.99622414     -0.99574469     -0.99525672     -0.99486047
      -0.99278878     -0.99159360     -0.98933014     -0.98879001
      -0.98777334     -0.98660052     -0.98529862     -0.98501216
      -0.98382035     -0.98229437     -0.98129118     -0.97855172
      -0.97755970     -0.97681412     -0.97613748     -0.97570211
      -0.97421490     -0.97243550     -0.97163468     -0.97145521
      -0.97007697     -0.96982587     -0.96877211     -0.96661544
      -0.96542047     -0.96368807     -0.96285301     -0.96237610
      -0.95996908     -0.95923361     -0.95492634     -0.95414881
      -0.95313163     -0.95170287     -0.95021792     -0.94839628
      -0.94690187     -0.94570717     -0.94523297     -0.94395067
      -0.51858282     -0.51503393     -0.50404575     -0.49995350
      -0.49575470     -0.49236466     -0.49128767     -0.48984131
      -0.48969293     -0.48831780     -0.48744062     -0.48697983
      -0.48509189     -0.48423740     -0.48388141     -0.48249914
      -0.48150733     -0.48061927     -0.47979433     -0.47865712
      -0.47648694     -0.47573183     -0.47545035     -0.47511647
      -0.47384847     -0.47234573     -0.47186116     -0.46947754
      -0.46834092     -0.46786812     -0.46612305     -0.46498336
      -0.46404053     -0.46330321     -0.46167299     -0.46080732
      -0.46024179     -0.45963735     -0.45832931     -0.45611835
      -0.45453222     -0.45359463     -0.45291077     -0.45177155
      -0.45070645     -0.45017164     -0.44855168     -0.44788696
      -0.44738085     -0.44583724     -0.44477505     -0.44407432
      -0.44380413     -0.44314779     -0.44253918     -0.44197734
      -0.44020985     -0.44012131     -0.43721672     -0.43701265
      -0.43512635     -0.43419030     -0.43372784     -0.41108639
      -0.38885479     -0.38611974     -0.38315307     -0.38189654
      -0.37824322     -0.37725410     -0.37436886     -0.37349598
      -0.37081547     -0.37061681     -0.36921930     -0.36707649
      -0.36382877     -0.36314015     -0.35888712     -0.35744753
      -0.35540997     -0.35444899     -0.35358555     -0.35269321
      -0.35123922     -0.34929834     -0.34717130     -0.34686705
      -0.34500806     -0.34245426     -0.33953763     -0.33859868
      -0.33776983     -0.33694063     -0.33640002     -0.33350456
      -0.33231871     -0.33075030     -0.32696007     -0.32650511
      -0.32375017     -0.32157770     -0.31998429     -0.31870436
      -0.31539736     -0.31329875     -0.31277501     -0.31155845
      -0.31036135     -0.30934036     -0.30767668     -0.30496783
      -0.30279753     -0.30203534     -0.30026037     -0.29916704
      -0.29786702     -0.29543741     -0.29389545     -0.29325618
      -0.29116541     -0.28791412     -0.28694159     -0.28642745
      -0.28450889     -0.28405093     -0.28264666     -0.27980231
      -0.27625350     -0.27376458     -0.26995197     -0.26936958
      -0.26808083     -0.26789018     -0.26699589     -0.26607935
      -0.26526296     -0.26450158     -0.26375513     -0.26327436
      -0.26299969     -0.26191063     -0.26115418     -0.26033172
      -0.25961636     -0.25949691     -0.25845871     -0.25753548
      -0.25592267     -0.25482071     -0.25294636     -0.25280143
      -0.25231761     -0.25135703     -0.25098139     -0.25065803
      -0.25028555     -0.24994713     -0.24923390     -0.24803762
      -0.24791926     -0.24737168     -0.24613640     -0.24523782
      -0.24486693     -0.24382600     -0.24351728     -0.24302953
      -0.24216673     -0.24127957     -0.24080376     -0.24025710
      -0.23996318     -0.23944709     -0.23761923     -0.23686724
      -0.23651221     -0.23619782     -0.23531760     -0.23479602
      -0.23364809     -0.23330643     -0.23260383     -0.23117482
      -0.23061471     -0.22965205     -0.22799289     -0.22737745
      -0.22637142     -0.22483056     -0.22357970     -0.21999539
 Fermi Energy [eV] :   -5.986379
  
  Eigenvalues of the occupied subspace spin            2
 ---------------------------------------------
      -1.03169498     -1.02306156     -1.01898725     -1.01599056
      -1.01468945     -1.01367402     -1.01332202     -1.01071006
      -1.00884040     -1.00744456     -1.00601795     -1.00534422
      -1.00502405     -1.00298605     -1.00154977     -1.00103787
      -0.99976446     -0.99934244     -0.99861757     -0.99688257
      -0.99608572     -0.99534676     -0.99488741     -0.99464263
      -0.99159597     -0.98934243     -0.98893248     -0.98796202
      -0.98660824     -0.98606893     -0.98518594     -0.98381822
      -0.98228410     -0.98133675     -0.97854409     -0.97756465
      -0.97684126     -0.97634483     -0.97610422     -0.97420334
      -0.97315136     -0.97190658     -0.97157126     -0.97028908
      -0.96984958     -0.96917949     -0.96724308     -0.96550297
      -0.96383940     -0.96290866     -0.96241551     -0.96018453
      -0.95928266     -0.95491997     -0.95415997     -0.95312616
      -0.95173041     -0.95021713     -0.94840489     -0.94686584
      -0.94570597     -0.94527194     -0.94394446     -0.89063381
      -0.51858623     -0.51503710     -0.50404933     -0.49997056
      -0.49575835     -0.49236227     -0.49128873     -0.48984033
      -0.48969527     -0.48831744     -0.48744309     -0.48697392
      -0.48509468     -0.48423556     -0.48388277     -0.48249111
      -0.48150558     -0.48062266     -0.47978864     -0.47866039
      -0.47648900     -0.47573401     -0.47545291     -0.47512011
      -0.47384863     -0.47234904     -0.47186024     -0.46946886
      -0.46832853     -0.46783048     -0.46612637     -0.46497554
      -0.46403823     -0.46330195     -0.46167379     -0.46078851
      -0.46021305     -0.45963308     -0.45831513     -0.45611546
      -0.45448843     -0.45355902     -0.45285827     -0.45176551
      -0.45069495     -0.45016261     -0.44819364     -0.44764929
      -0.44622337     -0.44568271     -0.44464305     -0.44395171
      -0.44371710     -0.44311485     -0.44235501     -0.44195274
      -0.44017989     -0.43908937     -0.43714274     -0.43695499
      -0.43511853     -0.43418487     -0.43369910     -0.39366388
      -0.38884213     -0.38598138     -0.38294465     -0.38109487
      -0.37813588     -0.37705124     -0.37404489     -0.37345802
      -0.37076543     -0.37044889     -0.36913699     -0.36691758
      -0.36343213     -0.35948900     -0.35748192     -0.35532052
      -0.35439247     -0.35348966     -0.35239767     -0.35136495
      -0.34932421     -0.34769115     -0.34683356     -0.34499268
      -0.34244096     -0.33952638     -0.33855141     -0.33760869
      -0.33688489     -0.33639304     -0.33380002     -0.33237252
      -0.33045387     -0.32678529     -0.32624797     -0.32367655
      -0.32147186     -0.31990191     -0.31892730     -0.31415906
      -0.31327891     -0.31269394     -0.31139985     -0.31018631
      -0.30950408     -0.30727708     -0.30498171     -0.30279755
      -0.30176410     -0.30022605     -0.29899807     -0.29780371
      -0.29542832     -0.29384212     -0.29321328     -0.29110493
      -0.28785510     -0.28693133     -0.28636162     -0.28447765
      -0.28392902     -0.28254625     -0.27976109     -0.27400696
      -0.27000423     -0.26935791     -0.26815855     -0.26779573
      -0.26697003     -0.26617287     -0.26525227     -0.26450472
      -0.26373271     -0.26312391     -0.26273682     -0.26173306
      -0.26115886     -0.26033917     -0.25960665     -0.25948697
      -0.25852067     -0.25765502     -0.25611551     -0.25480526
      -0.25365187     -0.25291479     -0.25260334     -0.25199304
      -0.25126193     -0.25072911     -0.25027785     -0.24991507
      -0.24933406     -0.24916416     -0.24794385     -0.24734874
      -0.24641880     -0.24608575     -0.24521084     -0.24461820
      -0.24373117     -0.24307554     -0.24266490     -0.24161672
      -0.24098377     -0.24074051     -0.24004790     -0.23948255
      -0.23936414     -0.23754845     -0.23682744     -0.23644707
      -0.23609188     -0.23521221     -0.23476719     -0.23363175
      -0.23301246     -0.23252858     -0.23110284     -0.23060113
      -0.22960854     -0.22796457     -0.22710556     -0.22634908
      -0.22480754     -0.22343959     -0.21982349
 Fermi Energy [eV] :   -5.981701
  
  Lowest Eigenvalues of the unoccupied subspace spin            1
 -----------------------------------------------------
  Reached convergence in           53  iterations 
       0.11590132
  
  Lowest Eigenvalues of the unoccupied subspace spin            2
 -----------------------------------------------------
  Reached convergence in           75  iterations 
       0.02001087
  
 HOMO - LUMO gap [eV] :    9.140215
 HOMO - LUMO gap [eV] :    6.526225

 ENERGY| Total FORCE_EVAL ( QS ) energy (a.u.):            -1099.744741825840265


 -------------------------------------------------------------------------------
 -                                                                             -
 -                                DBCSR STATISTICS                             -
 -                                                                             -
 -------------------------------------------------------------------------------
 COUNTER                                    TOTAL       BLAS       SMM       ACC
 flops    63 x     1 x    31                 7812     100.0%      0.0%      0.0%
 flops    64 x     1 x    31                23808     100.0%      0.0%      0.0%
 flops    63 x     1 x    32                56448     100.0%      0.0%      0.0%
 flops   898 x     1 x    31               111352     100.0%      0.0%      0.0%
 flops    63 x     1 x   442               111384     100.0%      0.0%      0.0%
 flops    65 x     1 x    33               115830     100.0%      0.0%      0.0%
 flops     1 x     1 x   442               221000     100.0%      0.0%      0.0%
 flops   912 x     1 x    31               339264     100.0%      0.0%      0.0%
 flops    64 x     1 x    33               342144     100.0%      0.0%      0.0%
 flops    65 x     1 x    32               786240     100.0%      0.0%      0.0%
 flops    63 x     1 x   456               804384     100.0%      0.0%      0.0%
 flops    31 x    31 x   442               849524     100.0%      0.0%      0.0%
 flops    65 x     1 x   442              1551420     100.0%      0.0%      0.0%
 flops     1 x     1 x   456              1596000     100.0%      0.0%      0.0%
 flops   898 x     1 x    33              1600236     100.0%      0.0%      0.0%
 flops    32 x    31 x   442              2630784     100.0%      0.0%      0.0%
 flops    31 x    32 x   442              3507712     100.0%      0.0%      0.0%
 flops    65 x    33 x   442              3792360     100.0%      0.0%      0.0%
 flops   912 x     1 x    33              4875552     100.0%      0.0%      0.0%
 flops    31 x    31 x   456              6135024     100.0%      0.0%      0.0%
 flops    14 x    31 x    31              6834632     100.0%      0.0%      0.0%
 flops    29 x    31 x    31              7134464     100.0%      0.0%      0.0%
 flops    64 x     1 x    32              7737344     100.0%      0.0%      0.0%
 flops    64 x    33 x   442             11202048     100.0%      0.0%      0.0%
 flops    65 x     1 x   456             11203920     100.0%      0.0%      0.0%
 flops    64 x     1 x   442             13974272     100.0%      0.0%      0.0%
 flops    32 x    31 x   456             18998784     100.0%      0.0%      0.0%
 flops    14 x    32 x    31             24692864     100.0%      0.0%      0.0%
 flops    14 x    31 x    32             24692864     100.0%      0.0%      0.0%
 flops    31 x    32 x   456             25331712     100.0%      0.0%      0.0%
 flops    65 x    32 x   442             25742080     100.0%      0.0%      0.0%
 flops    29 x    32 x    31             25776128     100.0%      0.0%      0.0%
 flops    29 x    31 x    32             25776128     100.0%      0.0%      0.0%
 flops    65 x    33 x   456             27387360     100.0%      0.0%      0.0%
 flops   898 x     1 x    32             30057856     100.0%      0.0%      0.0%
 flops    63 x    31 x    31             36083628     100.0%      0.0%      0.0%
 flops   898 x     1 x   442             51599080     100.0%      0.0%      0.0%
 flops   898 x    33 x   442             52392912     100.0%      0.0%      0.0%
 flops    32 x    32 x   442             57933824     100.0%      0.0%      0.0%
 flops    64 x    33 x   456             80898048     100.0%      0.0%      0.0%
 flops   912 x     1 x    32             91579392     100.0%      0.0%      0.0%
 flops     2 x     2 x    31             98771456     100.0%      0.0%      0.0%
 flops    64 x     1 x   456            100918272     100.0%      0.0%      0.0%
 flops    64 x    31 x    31            109969152     100.0%      0.0%      0.0%
 flops   912 x     1 x   442            157210560     100.0%      0.0%      0.0%
 flops   912 x    33 x   442            159629184     100.0%      0.0%      0.0%
 flops    65 x    32 x   456            185902080     100.0%      0.0%      0.0%
 flops     8 x     2 x    31            193314016     100.0%      0.0%      0.0%
 flops     2 x     8 x    31            193362624     100.0%      0.0%      0.0%
 flops    63 x    31 x   442            215806500     100.0%      0.0%      0.0%
 flops    63 x    31 x    32            260733312     100.0%      0.0%      0.0%
 flops    63 x    32 x    31            260733312     100.0%      0.0%      0.0%
 flops   898 x    31 x    31            295138476     100.0%      0.0%      0.0%
 flops     8 x     8 x    31            313424384     100.0%      0.0%      0.0%
 flops   898 x     1 x   456            372634080     100.0%      0.0%      0.0%
 flops   898 x    33 x   456            378366912     100.0%      0.0%      0.0%
 flops    32 x    32 x   456            418381824     100.0%      0.0%      0.0%
 flops    14 x    32 x    32            466092032     100.0%      0.0%      0.0%
 flops    29 x    32 x    32            486539264     100.0%      0.0%      0.0%
 flops   898 x    31 x   442            639828592     100.0%      0.0%      0.0%
 flops    64 x    31 x   442            657696000     100.0%      0.0%      0.0%
 flops    64 x    32 x    31            794615808     100.0%      0.0%      0.0%
 flops    64 x    31 x    32            794615808     100.0%      0.0%      0.0%
 flops   912 x    31 x    31            899219232     100.0%      0.0%      0.0%
 flops   912 x     1 x   456           1135330560     100.0%      0.0%      0.0%
 flops   912 x    33 x   456           1152797184     100.0%      0.0%      0.0%
 flops     2 x     2 x    32           1529364480     100.0%      0.0%      0.0%
 flops    63 x    31 x   456           1558494000     100.0%      0.0%      0.0%
 flops    63 x    32 x   442           1559376000     100.0%      0.0%      0.0%
 flops    14 x     1 x    14           1642955888     100.0%      0.0%      0.0%
 flops    29 x     1 x    14           1726843048     100.0%      0.0%      0.0%
 flops    14 x     1 x    29           1726843048     100.0%      0.0%      0.0%
 flops    29 x     1 x    29           1804160296     100.0%      0.0%      0.0%
 flops    63 x    32 x    32           1884008448     100.0%      0.0%      0.0%
 flops   912 x    31 x   442           1949410944     100.0%      0.0%      0.0%
 flops   898 x    32 x    31           2132613504     100.0%      0.0%      0.0%
 flops   898 x    31 x    32           2132613504     100.0%      0.0%      0.0%
 flops     8 x     2 x    32           2993249280     100.0%      0.0%      0.0%
 flops     2 x     8 x    32           2994001920     100.0%      0.0%      0.0%
 flops   898 x    31 x   456           4620662592     100.0%      0.0%      0.0%
 flops    64 x    31 x   456           4749696000     100.0%      0.0%      0.0%
 flops     8 x     8 x    32           4853022720     100.0%      0.0%      0.0%
 flops    14 x    14 x    31           4997242656     100.0%      0.0%      0.0%
 flops    29 x    14 x    31           5209697808     100.0%      0.0%      0.0%
 flops    14 x    29 x    31           5210956408     100.0%      0.0%      0.0%
 flops    29 x    29 x    31           5528616260     100.0%      0.0%      0.0%
 flops   912 x    31 x    32           6497584128     100.0%      0.0%      0.0%
 flops   912 x    32 x    31           6497584128     100.0%      0.0%      0.0%
 flops   898 x    32 x   442          10669102080     100.0%      0.0%      0.0%
 flops    63 x    32 x   456          11261376000     100.0%      0.0%      0.0%
 flops    64 x    32 x   442          12186017792     100.0%      0.0%      0.0%
 flops   912 x    31 x   456          14078098944     100.0%      0.0%      0.0%
 flops    14 x    31 x    14          15940434608     100.0%      0.0%      0.0%
 flops    64 x    32 x    32          16277831680     100.0%      0.0%      0.0%
 flops    29 x    31 x    14          16754332168     100.0%      0.0%      0.0%
 flops    14 x    31 x    29          16754332168     100.0%      0.0%      0.0%
 flops    29 x    31 x    29          17504486536     100.0%      0.0%      0.0%
 flops   912 x    32 x   442          32506306560     100.0%      0.0%      0.0%
 flops   898 x    32 x    32          35537006592     100.0%      0.0%      0.0%
 flops   898 x    32 x   456          77049262080     100.0%      0.0%      0.0%
 flops    14 x    14 x    32          77376660480     100.0%      0.0%      0.0%
 flops    29 x    14 x    32          80666288640     100.0%      0.0%      0.0%
 flops    14 x    29 x    32          80685776640     100.0%      0.0%      0.0%
 flops    29 x    29 x    32          85604380800     100.0%      0.0%      0.0%
 flops    64 x    32 x   456          88004001792     100.0%      0.0%      0.0%
 flops   912 x    32 x    32         108273106944     100.0%      0.0%      0.0%
 flops   912 x    32 x   456         234751426560     100.0%      0.0%      0.0%
 flops    14 x    32 x    14         245214301696     100.0%      0.0%      0.0%
 flops    29 x    32 x    14         257734620416     100.0%      0.0%      0.0%
 flops    14 x    32 x    29         257734620416     100.0%      0.0%      0.0%
 flops    29 x    32 x    29         269274367232     100.0%      0.0%      0.0%
 flops inhomo. stacks                     2806748     100.0%      0.0%      0.0%
 flops total                         2.147067E+12     100.0%      0.0%      0.0%
 flops max/rank                     69.239078E+09     100.0%      0.0%      0.0%
 matmuls inhomo. stacks                      2194     100.0%      0.0%      0.0%
 matmuls total                           86022168     100.0%      0.0%      0.0%
 number of processed stacks                743322     100.0%      0.0%      0.0%
 average stack size                                   115.7       0.0       0.0
 marketing flops                     2.511607E+12
 -------------------------------------------------------------------------------
 # multiplications                           3463
 max memory usage/rank             498.524160E+06
 # max total images/rank                        2
 # max 3D layers                                1
 # MPI messages exchanged                 2327136
 MPI messages size (bytes):
  total size                       485.124997E+09
  min size                           0.000000E+00
  max size                           3.326976E+06
  average size                     208.464391E+03
 MPI breakdown and total messages size (bytes):
             size <=      128             1042216                    94640
       128 < size <=     8192              497112               3758873048
      8192 < size <=    32768              196448               3565544696
     32768 < size <=   131072              280448              31076871168
    131072 < size <=  4194304              310912             446721993872
   4194304 < size <= 16777216                   0                        0
  16777216 < size                               0                        0
 -------------------------------------------------------------------------------

 *** WARNING in dbcsr/mm/dbcsr_mm.F:268 :: Using a non-square number of ***
 *** MPI ranks might lead to poor performance.                          ***
 *** Used ranks: 32                                                     ***
 *** Suggested: 36 64                                                   ***

 -------------------------------------------------------------------------------
 
 MEMORY| Estimated peak process memory [MiB]                                 476

 -------------------------------------------------------------------------------
 -                                                                             -
 -                         MESSAGE PASSING PERFORMANCE                         -
 -                                                                             -
 -------------------------------------------------------------------------------

 ROUTINE             CALLS      AVE VOLUME [Bytes]
 MP_Group              408
 MP_Bcast             2845                 574807.
 MP_Allreduce        22985                    287.
 MP_Sync               685
 MP_Alltoall         20844                1879622.
 MP_ISendRecv        24862                  74920.
 MP_Wait            317632
 MP_comm_split         237
 MP_ISend           175334                 124911.
 MP_IRecv           174838                 125733.
 MP_Recv                42                 930304.
 MP_Memory          201080
 MP_Write_All            6                 614304.
 -------------------------------------------------------------------------------


 -------------------------------------------------------------------------------
 -                                                                             -
 -                           R E F E R E N C E S                               -
 -                                                                             -
 -------------------------------------------------------------------------------
 
 CP2K version 6.1, the CP2K developers group (2018).
 CP2K is freely available from https://www.cp2k.org/ .

 Schuett, Ole; Messmer, Peter; Hutter, Juerg; VandeVondele, Joost. 
 Electronic Structure Calculations on Graphics Processing Units, John Wiley & Sons, Ltd, 173-190 (2016). 
 GPU-Accelerated Sparse Matrix-Matrix Multiplication for Linear Scaling Density Functional Theory.
 http://dx.doi.org/10.1002/9781118670712.ch8


 Borstnik, U; VandeVondele, J; Weber, V; Hutter, J. 
 PARALLEL COMPUTING, 40 (5-6), 47-58 (2014). 
 Sparse matrix multiplication: The distributed block-compressed sparse
 row library.
 http://dx.doi.org/10.1016/j.parco.2014.03.012


 Hutter, J; Iannuzzi, M; Schiffmann, F; VandeVondele, J. 
 WILEY INTERDISCIPLINARY REVIEWS-COMPUTATIONAL MOLECULAR SCIENCE, 4 (1), 15-25 (2014). 
 CP2K: atomistic simulations of condensed matter systems.
 http://dx.doi.org/10.1002/wcms.1159


 Sabatini, R; Gorni, T; de Gironcoli, S. 
 Phys. Rev. B, 87 (4), 041108(R) (2013). 
 Nonlocal van der Waals density functional made simple and efficient.
 http://dx.doi.org/10.1103/PhysRevB.87.041108


 Guidon, M; Hutter, J; VandeVondele, J. 
 JOURNAL OF CHEMICAL THEORY AND COMPUTATION, 6 (8), 2348-2364 (2010). 
 Auxiliary Density Matrix Methods for Hartree-Fock Exchange Calculations.
 http://dx.doi.org/10.1021/ct1002225


 Guidon, M; Hutter, J; VandeVondele, J. 
 JOURNAL OF CHEMICAL THEORY AND COMPUTATION, 5 (11), 3010-3021 (2009). 
 Robust Periodic Hartree-Fock Exchange for Large-Scale Simulations Using
 Gaussian Basis Sets.
 http://dx.doi.org/10.1021/ct900494g


 Roman-Perez, G; Soler, JM. 
 Phys. Rev. Lett., 103 (9), 096102 (2009). 
 Efficient Implementation of a van der Waals Density Functional:
 Application to Double-Wall Carbon Nanotubes.
 http://dx.doi.org/10.1103/PhysRevLett.103.096102


 Guidon, M; Schiffmann, F; Hutter, J; VandeVondele, J. 
 JOURNAL OF CHEMICAL PHYSICS, 128 (21), 214104 (2008). 
 Ab initio molecular dynamics using hybrid density functionals.
 http://dx.doi.org/10.1063/1.2931945


 VandeVondele, J; Hutter, J. 
 JOURNAL OF CHEMICAL PHYSICS, 127 (11), 114105 (2007). 
 Gaussian basis sets for accurate calculations on molecular systems in
 gas and condensed phases.
 http://dx.doi.org/10.1063/1.2770708


 Krack, M. 
 THEORETICAL CHEMISTRY ACCOUNTS, 114 (1-3), 145-152 (2005). 
 Pseudopotentials for H to Kr optimized for gradient-corrected
 exchange-correlation functionals.
 http://dx.doi.org/10.1007/s00214-005-0655-y


 VandeVondele, J; Krack, M; Mohamed, F; Parrinello, M; Chassaing, T;
 Hutter, J. COMPUTER PHYSICS COMMUNICATIONS, 167 (2), 103-128 (2005). 
 QUICKSTEP: Fast and accurate density functional calculations using a
 mixed Gaussian and plane waves approach.
 http://dx.doi.org/10.1016/j.cpc.2004.12.014


 Frigo, M; Johnson, SG. 
 PROCEEDINGS OF THE IEEE, 93 (2), 216-231 (2005). 
 The design and implementation of FFTW3.
 http://dx.doi.org/10.1109/JPROC.2004.840301


 Heyd, J; Scuseria, GE. 
 JOURNAL OF CHEMICAL PHYSICS, 120 (16), 7274-7280 (2004). 
 Assessment and validation of a screened Coulomb hybrid density
 functional.
 http://dx.doi.org/10.1063/1.1668634


 VandeVondele, J; Hutter, J. 
 JOURNAL OF CHEMICAL PHYSICS, 118 (10), 4365-4369 (2003). 
 An efficient orbital transformation method for electronic structure
 calculations.
 http://dx.doi.org/10.1063/1.1543154


 Hartwigsen, C; Goedecker, S; Hutter, J. 
 PHYSICAL REVIEW B, 58 (7), 3641-3662 (1998). 
 Relativistic separable dual-space Gaussian pseudopotentials from H to Rn.
 http://dx.doi.org/10.1103/PhysRevB.58.3641


 Lippert, G; Hutter, J; Parrinello, M. 
 MOLECULAR PHYSICS, 92 (3), 477-487 (1997). 
 A hybrid Gaussian and plane wave density functional scheme.
 http://dx.doi.org/10.1080/002689797170220


 Perdew, JP; Burke, K; Ernzerhof, M. 
 PHYSICAL REVIEW LETTERS, 77 (18), 3865-3868 (1996). 
 Generalized gradient approximation made simple.
 http://dx.doi.org/10.1103/PhysRevLett.77.3865


 Goedecker, S; Teter, M; Hutter, J. 
 PHYSICAL REVIEW B, 54 (3), 1703-1710 (1996). 
 Separable dual-space Gaussian pseudopotentials.
 http://dx.doi.org/10.1103/PhysRevB.54.1703


 -------------------------------------------------------------------------------
 -                                                                             -
 -                                T I M I N G                                  -
 -                                                                             -
 -------------------------------------------------------------------------------
 SUBROUTINE                       CALLS  ASD         SELF TIME        TOTAL TIME
                                MAXIMUM       AVERAGE  MAXIMUM  AVERAGE  MAXIMUM
 CP2K                                 1  1.0    0.088    0.099 1333.002 1333.003
 qs_energies                          1  2.0    0.000    0.001 1331.909 1331.909
 scf_env_do_scf                       1  3.0    0.000    0.000 1042.648 1042.648
 scf_env_do_scf_inner_loop           49  4.0    0.002    0.004  963.905  963.915
 qs_ks_update_qs_env                 50  5.0    0.001    0.001  754.222  754.224
 rebuild_ks_matrix                   49  6.0    0.000    0.000  754.053  754.056
 qs_ks_build_kohn_sham_matrix        49  7.0    0.008    0.009  754.053  754.056
 dbcsr_multiply_generic            3463  8.9    0.228    0.234  536.792  537.172
 hfx_ks_matrix                       49  8.0    0.002    0.002  385.322  385.463
 integrate_four_center               49  9.0    0.260    0.492  385.159  385.294
 integrate_four_center_main          49 10.0    0.014    0.015  368.722  376.318
 integrate_four_center_bin         3136 11.0  368.708  376.304  368.708  376.304
 scf_post_calculation_gpw             1  3.0    0.000    0.000  286.868  286.869
 make_lumo                            1  4.0    0.000    0.000  284.376  284.377
 multiply_cannon                   3463  9.9    0.605    0.617  283.105  284.212
 ot_eigensolver                       2  5.0    0.003    0.003  283.758  283.759
 mp_deallocate_d                  56888 13.0  265.586  266.437  265.586  266.437
 ot_mini                            177  6.6    0.001    0.001  254.659  254.673
 qs_vxc_create                       98  8.0    0.005    0.008  253.811  253.888
 qs_ot_get_derivative               115  7.9    0.001    0.001  228.874  228.890
 qs_scf_new_mos                      49  5.0    0.000    0.000  226.495  226.513
 qs_scf_loop_do_ot                   49  6.0    0.001    0.001  226.495  226.513
 xc_rho_set_and_dset_create          98 10.0    0.857    0.903  200.055  213.181
 dbcsr_destroy                    48761 10.7    0.177    0.182  211.842  212.137
 ot_scf_mini                         49  7.0    0.003    0.003  208.701  208.717
 mp_deallocate_i                  43902 13.0  200.578  201.971  200.578  201.971
 make_m2s                          6926  9.9    0.224    0.236  188.588  189.487
 xc_functional_eval                 245 11.0    0.002    0.002  160.525  173.516
 dbcsr_data_release              238558 12.5    0.812    0.922  157.806  158.092
 xc_vxc_pw_create                    50  9.0    0.848    0.893  144.071  144.071
 make_images                       6926 10.9    0.341    0.354  116.839  117.805
 pw_transfer                       5011 10.0    0.311    0.387  101.155  115.176
 fft_wrap_pw1pw2                   4496 11.1    0.038    0.046  100.133  114.138
 qs_ot_get_p                        232  6.8    0.002    0.002  106.788  107.270
 fft_wrap_pw1pw2_400               1543 12.3    8.342    9.839   88.764  102.538
 setup_buffer_matrices             6926 10.9    0.135    0.140  102.162  102.299
 dbcsr_create_new                 50665 11.5    0.276    0.285   97.911   98.480
 xpbe_hole_t_c_lr_lsd_eval           98 12.0   89.490   97.903   89.490   97.903
 dbcsr_make_index_exist           50665 12.5    0.138    0.142   96.048   96.643
 qs_ot_get_derivative_diag           64  8.2    0.002    0.002   94.322   94.348
 xc_exc_calc                         48  9.0    0.088    0.091   93.655   93.656
 calculate_rho_elec                 198  7.5   43.750   44.181   92.969   93.000
 fft3d_ps                          4496 13.1   40.160   41.663   75.286   89.588
 qs_ot_get_derivative_taylor         51  9.6    0.003    0.003   81.696   81.707
 init_scf_loop                        1  4.0    0.000    0.000   78.728   78.729
 dbcsr_make_images_dense           6048 11.2    0.114    0.119   71.422   71.544
 xwpbe_lsd_eval                      98 12.0   61.604   70.265   61.604   70.265
 qs_ot_get_orbitals                 230  6.9    0.001    0.002   67.115   67.178
 qs_rho_update_rho                   50  5.0    0.000    0.001   59.296   59.310
 admm_mo_calc_rho_aux                49  8.0    0.001    0.001   56.026   56.094
 dbcsr_special_finalize           10389 11.9    0.041    0.042   52.769   53.744
 buffer_matrices_ensure_size       6926 10.9    0.936    0.970   47.077   47.726
 quick_finalize                   10139 12.9    0.050    0.054   44.943   45.918
 density_rs2pw                      198  8.5    0.013    0.014   44.409   45.450
 mp_alltoall_z22v                  4496 15.1   24.285   42.092   24.285   42.092
 sum_up_and_integrate                25  8.0    0.338    0.359   41.266   41.272
 dbcsr_switch_data_area           27380 12.8    0.034    0.035   40.811   41.001
 integrate_v_rspace                 100  9.0   20.534   20.795   40.919   40.965
 qs_ot_p2m_diag                     135  7.3    0.006    0.007   39.211   39.257
 mp_waitall_1                    304322 12.3   34.532   35.760   34.532   35.760
 yz_to_x                           2289 13.8    3.845    4.399   19.492   35.451
 rs_pw_transfer                    1209  9.9    0.013    0.015   34.031   34.844
 apply_preconditioner_dbcsr         121  8.9    0.000    0.000   26.713   26.817
 apply_single                       121  9.9    0.000    0.000   26.713   26.817
 -------------------------------------------------------------------------------

 The number of warnings for this run is : 2
 
 -------------------------------------------------------------------------------
  **** **** ******  **  PROGRAM ENDED AT                 2024-03-15 00:04:24.359
 ***** ** ***  *** **   PROGRAM RAN ON                                      tc23
 **    ****   ******    PROGRAM RAN BY                                  fambrosi
 ***** **    ** ** **   PROGRAM PROCESS ID                                 19973
  **** **  *******  **  PROGRAM STOPPED IN          /scratch/fambrosi.55037.tccw
