 DBCSR| Multiplication driver                                               BLAS
 DBCSR| Multrec recursion limit                                              512
 DBCSR| Multiplication stack size                                           1000
 DBCSR| Maximum elements for images                                    UNLIMITED
 DBCSR| Multiplicative factor virtual images                                   1
 DBCSR| Multiplication size stacks                                             3
 DBCSR| Number of 3D layers                                               SINGLE
 DBCSR| Use MPI memory allocation                                              T
 DBCSR| Use RMA algorithm                                                      F
 DBCSR| Use Communication thread                                               T
 DBCSR| Communication thread load                                             87


  **** **** ******  **  PROGRAM STARTED AT               2024-03-16 15:06:02.286
 ***** ** ***  *** **   PROGRAM STARTED ON                                  tc23
 **    ****   ******    PROGRAM STARTED BY                              fambrosi
 ***** **    ** ** **   PROGRAM PROCESS ID                                 12556
  **** **  *******  **  PROGRAM STARTED IN          /scratch/fambrosi.55133.tccw

 CP2K| version string:                                          CP2K version 6.1
 CP2K| source code revision number:                                    svn:18464
 CP2K| cp2kflags: libint fftw3 libxc parallel mpi3 scalapack has_no_shared_glibc
 CP2K|             libderiv_max_am1=5 libint_max_am=6 max_contr=4 mkl
 CP2K| is freely available from                            https://www.cp2k.org/
 CP2K| Program compiled at                         Mon Jun 25 12:26:44 CEST 2018
 CP2K| Program compiled on                                                  tccw
 CP2K| Program compiled for                     Linux-x86-64-intel.MPI-OPENMP.O2
 CP2K| Data directory path                           /home/edoardo/cp2k-6.1/data
 CP2K| Input file name        /home/fambrosi/hydroxyl/test-koopman/anion/gga2/el
 
 GLOBAL| Force Environment number                                              1
 GLOBAL| Basis set file name               /usr/local/cp2k-6.1/data/BASIS_MOLOPT
 GLOBAL| Potential file name             /usr/local/cp2k-6.1/data/GTH_POTENTIALS
 GLOBAL| MM Potential file name                                     MM_POTENTIAL
 GLOBAL| Coordinate file name                                      __STD_INPUT__
 GLOBAL| Method name                                                        CP2K
 GLOBAL| Project name                                               water+I-.dyn
 GLOBAL| Preferred FFT library                                             FFTW3
 GLOBAL| Preferred diagonalization lib.                                       SL
 GLOBAL| Run type                                                         ENERGY
 GLOBAL| All-to-all communication in single precision                          F
 GLOBAL| FFTs using library dependent lengths                                  T
 GLOBAL| Global print level                                                  LOW
 GLOBAL| Total number of message passing processes                            64
 GLOBAL| Number of threads for this process                                    1
 GLOBAL| This output is from process                                           0
 GLOBAL| CPU model name :  Intel(R) Xeon(R) CPU E5-2683 v4 @ 2.10GHz

 MEMORY| system memory details [Kb]
 MEMORY|                        rank 0           min           max       average
 MEMORY| MemTotal            264564380     264564380     264564496     264564438
 MEMORY| MemFree              33455848      33455848      73637180      53546514
 MEMORY| Buffers                196560        185428        196560        190994
 MEMORY| Cached              220962660     181386100     220962660     201174380
 MEMORY| Slab                  6349208       5771444       6349208       6060326
 MEMORY| SReclaimable          6283016       5695968       6283016       5989492
 MEMORY| MemLikelyFree       260898084     260898084     260904676     260901380

 
 GENERATE|  Preliminary Number of Bonds generated:                             0
 GENERATE|  Achieved consistency in connectivity generation.

 *******************************************************************************
 *******************************************************************************
 **                                                                           **
 **     #####                         ##              ##                      **
 **    ##   ##            ##          ##              ##                      **
 **   ##     ##                       ##            ######                    **
 **   ##     ##  ##   ##  ##   #####  ##  ##   ####   ##    #####    #####    **
 **   ##     ##  ##   ##  ##  ##      ## ##   ##      ##   ##   ##  ##   ##   **
 **   ##  ## ##  ##   ##  ##  ##      ####     ###    ##   ######   ######    **
 **    ##  ###   ##   ##  ##  ##      ## ##      ##   ##   ##       ##        **
 **     #######   #####   ##   #####  ##  ##  ####    ##    #####   ##        **
 **           ##                                                    ##        **
 **                                                                           **
 **                                                ... make the atoms dance   **
 **                                                                           **
 **            Copyright (C) by CP2K developers group (2000 - 2018)           **
 **                                                                           **
 *******************************************************************************


 TOTAL NUMBERS AND MAXIMUM NUMBERS

  Total number of            - Atomic kinds:                                   2
                             - Atoms:                                        191
                             - Shell sets:                                  1146
                             - Shells:                                      1338
                             - Primitive Cartesian functions:               1528
                             - Cartesian basis functions:                   4081
                             - Spherical basis functions:                   3634

  Maximum angular momentum of- Orbital basis functions:                        3
                             - Local part of the GTH pseudopotential:          2
                             - Non-local part of the GTH pseudopotential:      0


 SCF PARAMETERS         Density guess:                                   RESTART
                        --------------------------------------------------------
                        max_scf:                                              50
                        max_scf_history:                                       0
                        max_diis:                                              4
                        --------------------------------------------------------
                        eps_scf:                                        1.00E-05
                        eps_scf_history:                                0.00E+00
                        eps_diis:                                       1.00E-01
                        eps_eigval:                                     1.00E-05
                        --------------------------------------------------------
                        level_shift [a.u.]:                                 0.00
                        --------------------------------------------------------
                        Outer loop SCF in use 
                        No variables optimised in outer loop
                        eps_scf                                         1.00E-05
                        max_scf                                               50
                        No outer loop optimization
                        step_size                                       5.00E-01

 Number of electrons:                                                        512
 Number of occupied orbitals:                                                256
 Number of molecular orbitals:                                               256

 Number of orbital functions:                                               3634
 Number of independent orbital functions:                                   3634

 Extrapolation method: initial_guess

 *** WARNING in qs_initial_guess.F:263 :: User requested to restart the    ***
 *** wavefunction from the file named: water+I-.dyn-RESTART.wfn. This file ***
 *** does not exist. Please check the existence of the file or change      ***
 *** properly the value of the keyword WFN_RESTART_FILE_NAME. Calculation  ***
 *** continues using ATOMIC GUESS.                                         ***



 SCF WAVEFUNCTION OPTIMIZATION

  ----------------------------------- OT ---------------------------------------
  Minimizer      : DIIS                : direct inversion
                                         in the iterative subspace
                                         using   7 DIIS vectors
                                         safer DIIS on
  Preconditioner : FULL_SINGLE_INVERSE : inversion of 
                                         H + eS - 2*(Sc)(c^T*H*c+const)(Sc)^T
  Precond_solver : DEFAULT
  stepsize       :    0.08000000                  energy_gap     :    0.08000000
  eps_taylor     :   0.10000E-15                  max_taylor     :             4
  ----------------------------------- OT ---------------------------------------

  Step     Update method      Time    Convergence         Total energy    Change
  ------------------------------------------------------------------------------
     1 OT DIIS     0.80E-01    4.7     0.01894949     -1061.2487941956 -1.06E+03
     2 OT DIIS     0.80E-01    4.4     0.01376896     -1081.5483359624 -2.03E+01
     3 OT DIIS     0.80E-01    4.5     0.01091860     -1092.4854010699 -1.09E+01
     4 OT DIIS     0.80E-01    4.5     0.00671444     -1100.6960191049 -8.21E+00
     5 OT DIIS     0.80E-01    4.5     0.00391160     -1103.6217546893 -2.93E+00
     6 OT DIIS     0.80E-01    4.6     0.00265065     -1104.7893120555 -1.17E+00
     7 OT DIIS     0.80E-01    4.6     0.00168667     -1105.2079036616 -4.19E-01
     8 OT DIIS     0.80E-01    4.6     0.00100501     -1105.4496335491 -2.42E-01
     9 OT DIIS     0.80E-01    4.5     0.00072742     -1105.5230790564 -7.34E-02
    10 OT DIIS     0.80E-01    4.4     0.00052806     -1105.5824505371 -5.94E-02
    11 OT DIIS     0.80E-01    4.4     0.00036334     -1105.6139037076 -3.15E-02
    12 OT DIIS     0.80E-01    4.3     0.00024174     -1105.6362348880 -2.23E-02
    13 OT DIIS     0.80E-01    4.4     0.00016492     -1105.6468115108 -1.06E-02
    14 OT DIIS     0.80E-01    4.4     0.00012217     -1105.6516670454 -4.86E-03
    15 OT DIIS     0.80E-01    4.4     0.00008825     -1105.6545528701 -2.89E-03
    16 OT DIIS     0.80E-01    4.6     0.00007074     -1105.6557857700 -1.23E-03
    17 OT DIIS     0.80E-01    4.7     0.00005449     -1105.6565739937 -7.88E-04
    18 OT DIIS     0.80E-01    4.6     0.00004088     -1105.6572141458 -6.40E-04
    19 OT DIIS     0.80E-01    4.5     0.00003385     -1105.6575436427 -3.29E-04
    20 OT DIIS     0.80E-01    4.4     0.00002772     -1105.6578124224 -2.69E-04
    21 OT DIIS     0.80E-01    4.4     0.00002359     -1105.6579842574 -1.72E-04
    22 OT DIIS     0.80E-01    4.4     0.00002042     -1105.6581182585 -1.34E-04
    23 OT DIIS     0.80E-01    4.3     0.00001737     -1105.6582391726 -1.21E-04
    24 OT DIIS     0.80E-01    4.5     0.00001539     -1105.6583150706 -7.59E-05
    25 OT DIIS     0.80E-01    4.5     0.00001363     -1105.6583825492 -6.75E-05
    26 OT DIIS     0.80E-01    4.5     0.00001215     -1105.6584379712 -5.54E-05
    27 OT DIIS     0.80E-01    4.4     0.00001094     -1105.6584832334 -4.53E-05
    28 OT DIIS     0.80E-01    4.4     0.00000974     -1105.6585250323 -4.18E-05

  *** SCF run converged in    28 steps ***


  Electronic density on regular grids:       -511.9999999999        0.0000000001
  Core density on regular grids:              510.9999999998       -0.0000000002
  Total charge density on r-space grids:       -1.0000000001
  Total charge density g-space grids:          -1.0000000001

  Overlap energy of the core charge distribution:               0.00000228609416
  Self energy of the core charge distribution:              -2836.80744583234036
  Core Hamiltonian energy:                                    829.27398009906801
  Hartree energy:                                            1176.08778286950701
  Exchange-correlation energy:                               -275.17910895844869
  Dispersion energy:                                            0.96626450383345

  Total energy:                                             -1105.65852503228666

  outer SCF iter =    1 RMS gradient =   0.97E-05 energy =      -1105.6585250323
  outer SCF loop converged in   1 iterations or   28 steps


 ENERGY| Total FORCE_EVAL ( QS ) energy (a.u.):            -1105.658525032286661


 -------------------------------------------------------------------------------
 -                                                                             -
 -                                DBCSR STATISTICS                             -
 -                                                                             -
 -------------------------------------------------------------------------------
 COUNTER                                    TOTAL       BLAS       SMM       ACC
 flops    14 x    32 x    32            262176768     100.0%      0.0%      0.0%
 flops    29 x    32 x    32            273678336     100.0%      0.0%      0.0%
 flops   442 x    32 x   442           2900764672     100.0%      0.0%      0.0%
 flops    32 x    32 x   442           6463242240     100.0%      0.0%      0.0%
 flops   442 x    32 x    32           7994867712     100.0%      0.0%      0.0%
 flops    32 x    32 x    32           8254390272     100.0%      0.0%      0.0%
 flops   442 x    32 x   456          20948508672     100.0%      0.0%      0.0%
 flops   456 x    32 x   442          20948508672     100.0%      0.0%      0.0%
 flops    14 x    14 x    32          24295219200     100.0%      0.0%      0.0%
 flops    29 x    14 x    32          25283471360     100.0%      0.0%      0.0%
 flops    14 x    29 x    32          25307584512     100.0%      0.0%      0.0%
 flops    29 x    29 x    32          26868940800     100.0%      0.0%      0.0%
 flops    32 x    32 x   456          46675722240     100.0%      0.0%      0.0%
 flops   456 x    32 x    32          57736691712     100.0%      0.0%      0.0%
 flops    14 x    32 x    14          99605180416     100.0%      0.0%      0.0%
 flops    29 x    32 x    14         104547975168     100.0%      0.0%      0.0%
 flops    14 x    32 x    29         104547975168     100.0%      0.0%      0.0%
 flops    29 x    32 x    29         109349699584     100.0%      0.0%      0.0%
 flops   456 x    32 x   456         151284252672     100.0%      0.0%      0.0%
 flops inhomo. stacks                           0       0.0%      0.0%      0.0%
 flops total                       843.548850E+09     100.0%      0.0%      0.0%
 flops max/rank                     13.308290E+09     100.0%      0.0%      0.0%
 matmuls inhomo. stacks                         0       0.0%      0.0%      0.0%
 matmuls total                           22684520     100.0%      0.0%      0.0%
 number of processed stacks                458144     100.0%      0.0%      0.0%
 average stack size                                    49.5       0.0       0.0
 marketing flops                   946.899059E+09
 -------------------------------------------------------------------------------
 # multiplications                            620
 max memory usage/rank             240.656384E+06
 # max total images/rank                        1
 # max 3D layers                                1
 # MPI messages exchanged                  555520
 MPI messages size (bytes):
  total size                        96.317030E+09
  min size                           0.000000E+00
  max size                           1.663488E+06
  average size                     173.381750E+03
 MPI breakdown and total messages size (bytes):
             size <=      128                1288                        0
       128 < size <=     8192              282744               2316238848
      8192 < size <=    32768                   0                        0
     32768 < size <=   131072              230720              26829967360
    131072 < size <=  4194304               40768              67170782112
   4194304 < size <= 16777216                   0                        0
  16777216 < size                               0                        0
 -------------------------------------------------------------------------------
 
 MEMORY| Estimated peak process memory [MiB]                                 231

 -------------------------------------------------------------------------------
 -                                                                             -
 -                         MESSAGE PASSING PERFORMANCE                         -
 -                                                                             -
 -------------------------------------------------------------------------------

 ROUTINE             CALLS      AVE VOLUME [Bytes]
 MP_Group               44
 MP_Bcast             2462                 394546.
 MP_Allreduce         9260                    384.
 MP_Sync                32
 MP_Alltoall          4226                1368976.
 MP_ISendRecv         7182                  47520.
 MP_Wait             59772
 MP_comm_split          28
 MP_ISend            22366                  99985.
 MP_IRecv            22366                 100238.
 MP_Recv                14                 930304.
 MP_Memory           25102
 -------------------------------------------------------------------------------


 -------------------------------------------------------------------------------
 -                                                                             -
 -                           R E F E R E N C E S                               -
 -                                                                             -
 -------------------------------------------------------------------------------
 
 CP2K version 6.1, the CP2K developers group (2018).
 CP2K is freely available from https://www.cp2k.org/ .

 Lehtola, S; Steigemann, C; Oliveira, MJT; Marques, MAL. 
 SoftwareX, 7, 1-5 (2018). 
 Recent developments in libxc - A comprehensive library of functionals
 for density functional theory.
 http://dx.doi.org/10.1016/j.softx.2017.11.002


 Schuett, Ole; Messmer, Peter; Hutter, Juerg; VandeVondele, Joost. 
 Electronic Structure Calculations on Graphics Processing Units, John Wiley & Sons, Ltd, 173-190 (2016). 
 GPU-Accelerated Sparse Matrix-Matrix Multiplication for Linear Scaling Density Functional Theory.
 http://dx.doi.org/10.1002/9781118670712.ch8


 Borstnik, U; VandeVondele, J; Weber, V; Hutter, J. 
 PARALLEL COMPUTING, 40 (5-6), 47-58 (2014). 
 Sparse matrix multiplication: The distributed block-compressed sparse
 row library.
 http://dx.doi.org/10.1016/j.parco.2014.03.012


 Hutter, J; Iannuzzi, M; Schiffmann, F; VandeVondele, J. 
 WILEY INTERDISCIPLINARY REVIEWS-COMPUTATIONAL MOLECULAR SCIENCE, 4 (1), 15-25 (2014). 
 CP2K: atomistic simulations of condensed matter systems.
 http://dx.doi.org/10.1002/wcms.1159


 Sabatini, R; Gorni, T; de Gironcoli, S. 
 Phys. Rev. B, 87 (4), 041108(R) (2013). 
 Nonlocal van der Waals density functional made simple and efficient.
 http://dx.doi.org/10.1103/PhysRevB.87.041108


 Marques, MAL; Oliveira, MJT; Burnus, T. 
 COMPUTER PHYSICS COMMUNICATIONS, 183 (10), 2272-2281 (2012). 
 LIBXC: A library of exchange and correlation functionals for density
 functional theory.
 http://dx.doi.org/10.1016/j.cpc.2012.05.007


 Roman-Perez, G; Soler, JM. 
 Phys. Rev. Lett., 103 (9), 096102 (2009). 
 Efficient Implementation of a van der Waals Density Functional:
 Application to Double-Wall Carbon Nanotubes.
 http://dx.doi.org/10.1103/PhysRevLett.103.096102


 VandeVondele, J; Hutter, J. 
 JOURNAL OF CHEMICAL PHYSICS, 127 (11), 114105 (2007). 
 Gaussian basis sets for accurate calculations on molecular systems in
 gas and condensed phases.
 http://dx.doi.org/10.1063/1.2770708


 Krack, M. 
 THEORETICAL CHEMISTRY ACCOUNTS, 114 (1-3), 145-152 (2005). 
 Pseudopotentials for H to Kr optimized for gradient-corrected
 exchange-correlation functionals.
 http://dx.doi.org/10.1007/s00214-005-0655-y


 VandeVondele, J; Krack, M; Mohamed, F; Parrinello, M; Chassaing, T;
 Hutter, J. COMPUTER PHYSICS COMMUNICATIONS, 167 (2), 103-128 (2005). 
 QUICKSTEP: Fast and accurate density functional calculations using a
 mixed Gaussian and plane waves approach.
 http://dx.doi.org/10.1016/j.cpc.2004.12.014


 Frigo, M; Johnson, SG. 
 PROCEEDINGS OF THE IEEE, 93 (2), 216-231 (2005). 
 The design and implementation of FFTW3.
 http://dx.doi.org/10.1109/JPROC.2004.840301


 VandeVondele, J; Hutter, J. 
 JOURNAL OF CHEMICAL PHYSICS, 118 (10), 4365-4369 (2003). 
 An efficient orbital transformation method for electronic structure
 calculations.
 http://dx.doi.org/10.1063/1.1543154


 Hartwigsen, C; Goedecker, S; Hutter, J. 
 PHYSICAL REVIEW B, 58 (7), 3641-3662 (1998). 
 Relativistic separable dual-space Gaussian pseudopotentials from H to Rn.
 http://dx.doi.org/10.1103/PhysRevB.58.3641


 Lippert, G; Hutter, J; Parrinello, M. 
 MOLECULAR PHYSICS, 92 (3), 477-487 (1997). 
 A hybrid Gaussian and plane wave density functional scheme.
 http://dx.doi.org/10.1080/002689797170220


 Goedecker, S; Teter, M; Hutter, J. 
 PHYSICAL REVIEW B, 54 (3), 1703-1710 (1996). 
 Separable dual-space Gaussian pseudopotentials.
 http://dx.doi.org/10.1103/PhysRevB.54.1703


 -------------------------------------------------------------------------------
 -                                                                             -
 -                                T I M I N G                                  -
 -                                                                             -
 -------------------------------------------------------------------------------
 SUBROUTINE                       CALLS  ASD         SELF TIME        TOTAL TIME
                                MAXIMUM       AVERAGE  MAXIMUM  AVERAGE  MAXIMUM
 CP2K                                 1  1.0    0.064    0.101  127.851  127.852
 qs_energies                          1  2.0    0.000    0.000  127.079  127.079
 scf_env_do_scf                       1  3.0    0.000    0.000  125.810  125.810
 scf_env_do_scf_inner_loop           28  4.0    0.001    0.002  122.850  122.891
 dbcsr_multiply_generic             620 10.1    0.037    0.039   73.327   73.519
 qs_scf_new_mos                      28  5.0    0.000    0.000   69.575   69.684
 qs_scf_loop_do_ot                   28  6.0    0.000    0.000   69.574   69.684
 ot_scf_mini                         28  7.0    0.001    0.001   66.040   66.210
 ot_mini                             28  8.0    0.000    0.000   45.423   45.563
 qs_ks_update_qs_env                 29  5.0    0.000    0.000   42.149   42.224
 rebuild_ks_matrix                   28  6.0    0.000    0.000   42.091   42.167
 qs_ks_build_kohn_sham_matrix        28  7.0    0.004    0.005   42.091   42.166
 qs_ot_get_derivative                28  9.0    0.000    0.000   40.446   40.585
 multiply_cannon                    620 11.1    0.095    0.102   36.924   37.672
 mp_deallocate_d                   7268 14.3   34.445   34.914   34.445   34.914
 qs_ot_get_derivative_diag           27 10.0    0.001    0.001   30.710   30.854
 dbcsr_destroy                     7102 11.7    0.023    0.024   27.503   27.855
 make_m2s                          1240 11.1    0.038    0.040   26.763   27.036
 pw_transfer                       2134  9.9    0.097    0.118   25.318   26.327
 fft_wrap_pw1pw2                   1938 10.9    0.012    0.015   24.944   26.071
 qs_vxc_create                       28  8.0    0.004    0.012   25.208   25.401
 mp_deallocate_i                   5285 14.2   24.219   24.601   24.219   24.601
 fft3d_ps                          1938 12.9    6.106    8.737   21.422   23.460
 dbcsr_data_release               42048 13.7    0.173    0.290   21.821   22.076
 fft_wrap_pw1pw2_400                339 11.8    1.273    2.118   18.241   18.765
 mp_alltoall_z22v                  1938 14.9   13.854   17.901   13.854   17.901
 make_images                       1240 12.1    0.051    0.053   16.411   16.584
 xc_vxc_pw_create                    28  9.0    0.084    0.096   15.371   15.598
 qs_rho_update_rho                   29  5.0    0.000    0.000   13.085   13.106
 calculate_rho_elec                  29  6.0    4.885    4.993   13.085   13.106
 setup_buffer_matrices             1240 12.1    0.017    0.017   12.463   12.650
 dbcsr_create_new                  7361 12.5    0.038    0.041   11.729   11.913
 dbcsr_make_index_exist            7361 13.5    0.018    0.019   11.463   11.679
 sum_up_and_integrate                28  8.0    0.072    0.116   10.910   11.087
 integrate_v_rspace                  28  9.0    4.481    4.578   10.838   11.038
 qs_ot_get_p                         29  7.9    0.000    0.000   10.594   10.769
 dbcsr_make_images_dense           1110 12.3    0.015    0.016   10.297   10.477
 calculate_dispersion_nonloc         28  9.0    0.815    1.118    9.833   10.389
 yz_to_x                            872 13.8    0.426    0.652    7.490    9.834
 x_to_yz                           1009 14.0    0.972    2.026    7.758    9.107
 xc_rho_set_and_dset_create          28 10.0    0.059    0.088    8.172    8.740
 rs_pw_transfer                     229  9.5    0.002    0.003    7.154    7.392
 density_rs2pw                       29  7.0    0.002    0.002    6.819    7.034
 dbcsr_special_finalize            1240 13.1    0.005    0.005    6.653    6.931
 quick_finalize                    1391 13.9    0.008    0.009    6.646    6.924
 qs_ot_p2m_diag                      28  9.0    0.004    0.005    6.556    6.590
 fft_wrap_pw1pw2_100               1428 12.0    0.345    0.606    5.893    6.380
 qs_ot_get_orbitals                  28  8.0    0.000    0.000    6.360    6.377
 buffer_matrices_ensure_size       1240 12.1    0.092    0.125    6.038    6.173
 mp_waitall_1                     57242 13.3    5.633    6.087    5.633    6.087
 potential_pw2rs                     28 10.0    0.007    0.008    5.676    5.941
 dbcsr_switch_data_area            4021 13.8    0.005    0.005    5.544    5.686
 apply_preconditioner_dbcsr          29 10.0    0.000    0.000    4.737    4.920
 apply_single                        29 11.0    0.000    0.000    4.737    4.920
 ot_diis_step                        28  9.0    0.002    0.002    4.858    4.859
 mp_waitany                        2530 11.4    3.435    4.236    3.435    4.236
 calculate_dm_sparse                 29  7.0    0.000    0.000    3.669    3.745
 multiply_cannon_metrocomm1        4960 12.1    0.019    0.023    2.574    3.656
 xc_functional_eval                  56 11.0    0.000    0.001    2.969    3.550
 libxc_lda_eval                      56 12.0    2.969    3.550    2.969    3.550
 make_images_sizes                 1240 13.1    0.002    0.002    2.807    3.088
 mp_alltoall_i44                   1240 14.1    2.805    3.086    2.805    3.086
 init_scf_loop                        1  4.0    0.000    0.000    2.917    2.917
 multiply_cannon_metrocomm3        4960 12.1    0.017    0.019    1.675    2.654
 -------------------------------------------------------------------------------

 The number of warnings for this run is : 1
 
 -------------------------------------------------------------------------------
  **** **** ******  **  PROGRAM ENDED AT                 2024-03-16 15:08:10.799
 ***** ** ***  *** **   PROGRAM RAN ON                                      tc23
 **    ****   ******    PROGRAM RAN BY                                  fambrosi
 ***** **    ** ** **   PROGRAM PROCESS ID                                 12556
  **** **  *******  **  PROGRAM STOPPED IN          /scratch/fambrosi.55133.tccw
