 DBCSR| Multiplication driver                                               BLAS
 DBCSR| Multrec recursion limit                                              512
 DBCSR| Multiplication stack size                                           1000
 DBCSR| Maximum elements for images                                    UNLIMITED
 DBCSR| Multiplicative factor virtual images                                   1
 DBCSR| Multiplication size stacks                                             3
 DBCSR| Number of 3D layers                                               SINGLE
 DBCSR| Use MPI memory allocation                                              T
 DBCSR| Use RMA algorithm                                                      F
 DBCSR| Use Communication thread                                               T
 DBCSR| Communication thread load                                             87


  **** **** ******  **  PROGRAM STARTED AT               2024-03-15 23:35:13.098
 ***** ** ***  *** **   PROGRAM STARTED ON                                  tc13
 **    ****   ******    PROGRAM STARTED BY                              fambrosi
 ***** **    ** ** **   PROGRAM PROCESS ID                                  4998
  **** **  *******  **  PROGRAM STARTED IN          /scratch/fambrosi.55103.tccw

 CP2K| version string:                                          CP2K version 6.1
 CP2K| source code revision number:                                    svn:18464
 CP2K| cp2kflags: libint fftw3 libxc parallel mpi3 scalapack has_no_shared_glibc
 CP2K|             libderiv_max_am1=5 libint_max_am=6 max_contr=4 mkl
 CP2K| is freely available from                            https://www.cp2k.org/
 CP2K| Program compiled at                         Mon Jun 25 12:26:44 CEST 2018
 CP2K| Program compiled on                                                  tccw
 CP2K| Program compiled for                     Linux-x86-64-intel.MPI-OPENMP.O2
 CP2K| Data directory path                           /home/edoardo/cp2k-6.1/data
 CP2K| Input file name        /home/fambrosi/hydroxyl/test-koopman/radical/hyb2/
 
 GLOBAL| Force Environment number                                              1
 GLOBAL| Basis set file name               /usr/local/cp2k-6.1/data/BASIS_MOLOPT
 GLOBAL| Potential file name             /usr/local/cp2k-6.1/data/GTH_POTENTIALS
 GLOBAL| MM Potential file name                                     MM_POTENTIAL
 GLOBAL| Coordinate file name                                      __STD_INPUT__
 GLOBAL| Method name                                                        CP2K
 GLOBAL| Project name                                               water+I-.dyn
 GLOBAL| Preferred FFT library                                             FFTW3
 GLOBAL| Preferred diagonalization lib.                                       SL
 GLOBAL| Run type                                                         ENERGY
 GLOBAL| All-to-all communication in single precision                          F
 GLOBAL| FFTs using library dependent lengths                                  T
 GLOBAL| Global print level                                                  LOW
 GLOBAL| Total number of message passing processes                            32
 GLOBAL| Number of threads for this process                                    1
 GLOBAL| This output is from process                                           0
 GLOBAL| CPU model name :  Intel(R) Xeon(R) CPU E5-2683 v4 @ 2.10GHz

 MEMORY| system memory details [Kb]
 MEMORY|                        rank 0           min           max       average
 MEMORY| MemTotal            264564492     264564492     264564492     264564492
 MEMORY| MemFree             228407072     228407072     228407072     228407072
 MEMORY| Buffers                223616        223616        223616        223616
 MEMORY| Cached               32462768      32462768      32462768      32462768
 MEMORY| Slab                   569220        569220        569220        569220
 MEMORY| SReclaimable           494740        494740        494740        494740
 MEMORY| MemLikelyFree       261588196     261588196     261588196     261588196

 
 GENERATE|  Preliminary Number of Bonds generated:                             0
 GENERATE|  Achieved consistency in connectivity generation.

 *******************************************************************************
 *******************************************************************************
 **                                                                           **
 **     #####                         ##              ##                      **
 **    ##   ##            ##          ##              ##                      **
 **   ##     ##                       ##            ######                    **
 **   ##     ##  ##   ##  ##   #####  ##  ##   ####   ##    #####    #####    **
 **   ##     ##  ##   ##  ##  ##      ## ##   ##      ##   ##   ##  ##   ##   **
 **   ##  ## ##  ##   ##  ##  ##      ####     ###    ##   ######   ######    **
 **    ##  ###   ##   ##  ##  ##      ## ##      ##   ##   ##       ##        **
 **     #######   #####   ##   #####  ##  ##  ####    ##    #####   ##        **
 **           ##                                                    ##        **
 **                                                                           **
 **                                                ... make the atoms dance   **
 **                                                                           **
 **            Copyright (C) by CP2K developers group (2000 - 2018)           **
 **                                                                           **
 *******************************************************************************


 TOTAL NUMBERS AND MAXIMUM NUMBERS

  Total number of            - Atomic kinds:                                   2
                             - Atoms:                                        191
                             - Shell sets:                                  1146
                             - Shells:                                      1338
                             - Primitive Cartesian functions:               1528
                             - Cartesian basis functions:                   4081
                             - Spherical basis functions:                   3634

  Maximum angular momentum of- Orbital basis functions:                        3
                             - Local part of the GTH pseudopotential:          2
                             - Non-local part of the GTH pseudopotential:      0

  AUX_FIT ADMM-Basis: 
  Total number of            - Shell sets:                                   510
                             - Shells:                                       510
                             - Primitive Cartesian functions:                765
                             - Cartesian basis functions:                    766
                             - Spherical basis functions:                    766
                               Maximum angular momentum                        1


 SCF PARAMETERS         Density guess:                                   RESTART
                        --------------------------------------------------------
                        max_scf:                                              50
                        max_scf_history:                                       0
                        max_diis:                                              4
                        --------------------------------------------------------
                        eps_scf:                                        1.00E-05
                        eps_scf_history:                                0.00E+00
                        eps_diis:                                       1.00E-01
                        eps_eigval:                                     1.00E-05
                        --------------------------------------------------------
                        level_shift [a.u.]:                                 0.00
                        --------------------------------------------------------
                        Outer loop SCF in use 
                        No variables optimised in outer loop
                        eps_scf                                         1.00E-05
                        max_scf                                               50
                        No outer loop optimization
                        step_size                                       5.00E-01

 Number of electrons:                                                        512
 Number of occupied orbitals:                                                256
 Number of molecular orbitals:                                               256

 Number of orbital functions:                                               3634
 Number of independent orbital functions:                                   3634

 Extrapolation method: initial_guess


 SCF WAVEFUNCTION OPTIMIZATION

  ----------------------------------- OT ---------------------------------------
  Minimizer      : CG                  : conjugate gradient
  Preconditioner : FULL_SINGLE_INVERSE : inversion of 
                                         H + eS - 2*(Sc)(c^T*H*c+const)(Sc)^T
  Precond_solver : DEFAULT
  Line search    : 2PNT                : 2 energies, one gradient
  stepsize       :    0.08000000                  energy_gap     :    0.08000000
  eps_taylor     :   0.10000E-15                  max_taylor     :             4
  ----------------------------------- OT ---------------------------------------

  Step     Update method      Time    Convergence         Total energy    Change
  ------------------------------------------------------------------------------

 *** WARNING in hfx_energy_potential.F:605 :: The Kohn Sham matrix is not  ***
 *** 100% occupied. This may result in incorrect Hartree-Fock results. Try ***
 *** to decrease EPS_PGF_ORB and EPS_FILTER_MATRIX in the QS section. For  ***
 *** more information see FAQ: https://www.cp2k.org/faq:hfx_eps_warning    ***

     1 OT CG       0.80E-01   72.4     0.00164431     -1099.5642949962 -1.10E+03
     2 OT LS       0.12E+00    9.2                    -1099.6978566390
     3 OT CG       0.12E+00   13.9     0.00123538     -1099.7140722860 -1.50E-01
     4 OT LS       0.33E-01    9.3                    -1099.5747048546
     5 OT CG       0.33E-01   14.6     0.00070678     -1099.7373353346 -2.33E-02
     6 OT LS       0.32E-01    9.4                    -1099.7447688637
     7 OT CG       0.32E-01   13.9     0.00034955     -1099.7447719496 -7.44E-03
     8 OT LS       0.49E-01    9.2                    -1099.7472196471
     9 OT CG       0.49E-01   13.8     0.00018567     -1099.7475539283 -2.78E-03
    10 OT LS       0.52E-01    9.3                    -1099.7483864879
    11 OT CG       0.52E-01   14.0     0.00011152     -1099.7483895006 -8.36E-04
    12 OT LS       0.37E-01    9.2                    -1099.7485663271
    13 OT CG       0.37E-01   13.9     0.00007790     -1099.7486028185 -2.13E-04
    14 OT LS       0.39E-01    9.3                    -1099.7487129412
    15 OT CG       0.39E-01   14.3     0.00003892     -1099.7487133126 -1.10E-04
    16 OT LS       0.56E-01    9.4                    -1099.7487491348
    17 OT CG       0.56E-01   14.0     0.00002307     -1099.7487526418 -3.93E-05
    18 OT LS       0.43E-01    9.2                    -1099.7487623812
    19 OT CG       0.43E-01   14.0     0.00001634     -1099.7487633112 -1.07E-05
    20 OT LS       0.35E-01    9.4                    -1099.7487673812
    21 OT CG       0.35E-01   13.9     0.00000918     -1099.7487676308 -4.32E-06

  *** SCF run converged in    21 steps ***


  Electronic density on regular grids:       -511.9999999999        0.0000000001
  Core density on regular grids:              510.9999999998       -0.0000000002
  Total charge density on r-space grids:       -1.0000000001
  Total charge density g-space grids:          -1.0000000001

  Overlap energy of the core charge distribution:               0.00000304316890
  Self energy of the core charge distribution:              -2836.80744583234036
  Core Hamiltonian energy:                                    827.34420853616939
  Hartree energy:                                            1178.99352476116110
  Exchange-correlation energy:                               -170.90140526755300
  Hartree-Fock Exchange energy:                              -100.52191901172635
  Dispersion energy:                                            2.14426614033872

  Total energy:                                             -1099.74876763078191

  outer SCF iter =    1 RMS gradient =   0.92E-05 energy =      -1099.7487676308
  outer SCF loop converged in   1 iterations or   21 steps

  
  Eigenvalues of the occupied subspace spin            1
 ---------------------------------------------
      -1.03052556     -1.02759461     -1.02542727     -1.02440885
      -1.02232747     -1.01808149     -1.01706118     -1.01511443
      -1.01459324     -1.01337084     -1.01250217     -1.01072811
      -1.00801585     -1.00763943     -1.00691410     -1.00481619
      -1.00367403     -1.00283712     -1.00192580     -1.00130646
      -1.00004004     -0.99981499     -0.99923228     -0.99798675
      -0.99693093     -0.99460306     -0.99285900     -0.99210773
      -0.99064706     -0.98950999     -0.98839890     -0.98780440
      -0.98598471     -0.98374531     -0.98162161     -0.97986498
      -0.97875553     -0.97803088     -0.97683863     -0.97662479
      -0.97461645     -0.97184597     -0.97107654     -0.97035795
      -0.96994349     -0.96840836     -0.96608856     -0.96483575
      -0.96429243     -0.96417808     -0.96292446     -0.96115406
      -0.96001685     -0.95937741     -0.95491927     -0.95363340
      -0.94975727     -0.94782074     -0.94369091     -0.94137702
      -0.93411960     -0.92687576     -0.92400136     -0.70563543
      -0.51292451     -0.50663976     -0.50460411     -0.50245380
      -0.49837961     -0.49791110     -0.49635746     -0.49457435
      -0.49450629     -0.49385747     -0.49171451     -0.49081559
      -0.48835782     -0.48767518     -0.48651904     -0.48442886
      -0.48331376     -0.48182626     -0.47982687     -0.47971080
      -0.47923150     -0.47848496     -0.47757548     -0.47496361
      -0.47482430     -0.47368345     -0.47316729     -0.47245663
      -0.47097792     -0.47053376     -0.46982295     -0.46940642
      -0.46839464     -0.46754885     -0.46662447     -0.46582044
      -0.46475167     -0.46413500     -0.46281328     -0.46212201
      -0.46050149     -0.45987049     -0.45902834     -0.45859218
      -0.45780096     -0.45689896     -0.45533964     -0.45303594
      -0.45260265     -0.45010304     -0.44537068     -0.44343524
      -0.44067415     -0.44028017     -0.43995701     -0.43890302
      -0.43772381     -0.43631859     -0.43502223     -0.42328745
      -0.42268475     -0.41426003     -0.40466662     -0.40302412
      -0.40091562     -0.39460876     -0.38983377     -0.38634750
      -0.38494098     -0.38217373     -0.37968012     -0.37804170
      -0.37643685     -0.37181374     -0.36795372     -0.36709083
      -0.36431279     -0.36290067     -0.36190242     -0.36093066
      -0.35718583     -0.35539474     -0.35366697     -0.35231367
      -0.34916538     -0.34581084     -0.34452770     -0.34325884
      -0.34280806     -0.34052849     -0.33932443     -0.33853705
      -0.33623211     -0.33494656     -0.33392567     -0.33335939
      -0.33091432     -0.32950364     -0.32707477     -0.32627527
      -0.32430574     -0.32301229     -0.32133246     -0.31807675
      -0.31733389     -0.31372032     -0.31338959     -0.31169984
      -0.30844453     -0.30761585     -0.30596117     -0.30446698
      -0.30402386     -0.30110173     -0.30062760     -0.29846671
      -0.29719128     -0.29664669     -0.29546247     -0.29111750
      -0.28844246     -0.28709623     -0.28410333     -0.28347362
      -0.28235169     -0.28103003     -0.27948068     -0.27888892
      -0.27822610     -0.27765917     -0.27690629     -0.27630052
      -0.27539314     -0.27322026     -0.27293242     -0.27200051
      -0.27043788     -0.26969942     -0.26827863     -0.26778863
      -0.26595532     -0.26538130     -0.26447480     -0.26370372
      -0.26295587     -0.26269016     -0.26146025     -0.26093137
      -0.26017350     -0.25976381     -0.25951870     -0.25787342
      -0.25651784     -0.25541949     -0.25471709     -0.25449614
      -0.25308258     -0.25271330     -0.25208748     -0.25109503
      -0.24737992     -0.24606820     -0.24600013     -0.24496337
      -0.24476852     -0.24399763     -0.24342509     -0.24233918
      -0.24173254     -0.23989867     -0.23882839     -0.23771439
      -0.23753830     -0.23713174     -0.23628489     -0.23523380
      -0.23280703     -0.23191862     -0.23038236     -0.22971592
      -0.22735130     -0.22426848     -0.22224848     -0.22061441
      -0.21819647     -0.21648363     -0.21324296     -0.20792961
      -0.20727921     -0.13348657     -0.03418623     -0.03071731
 Fermi Energy [eV] :   -0.835861
  
  Lowest Eigenvalues of the unoccupied subspace spin            1
 -----------------------------------------------------
  Reached convergence in           51  iterations 
       0.10929016
  
 HOMO - LUMO gap [eV] :    3.809797

 ENERGY| Total FORCE_EVAL ( QS ) energy (a.u.):            -1099.748767630781913


 -------------------------------------------------------------------------------
 -                                                                             -
 -                                DBCSR STATISTICS                             -
 -                                                                             -
 -------------------------------------------------------------------------------
 COUNTER                                    TOTAL       BLAS       SMM       ACC
 flops     1 x     1 x   442                87516     100.0%      0.0%      0.0%
 flops    65 x     1 x    33               111540     100.0%      0.0%      0.0%
 flops    64 x     1 x    33               329472     100.0%      0.0%      0.0%
 flops     1 x     1 x   456               632016     100.0%      0.0%      0.0%
 flops    65 x     1 x    32               757120     100.0%      0.0%      0.0%
 flops    65 x     1 x   442              1493960     100.0%      0.0%      0.0%
 flops   898 x     1 x    33              1540968     100.0%      0.0%      0.0%
 flops    64 x     1 x    32              2498560     100.0%      0.0%      0.0%
 flops    65 x    33 x   442              3792360     100.0%      0.0%      0.0%
 flops   912 x     1 x    33              4694976     100.0%      0.0%      0.0%
 flops    64 x     1 x   442              4865536     100.0%      0.0%      0.0%
 flops    65 x     1 x   456             10788960     100.0%      0.0%      0.0%
 flops    64 x    33 x   442             11202048     100.0%      0.0%      0.0%
 flops   898 x     1 x    32             11379456     100.0%      0.0%      0.0%
 flops   898 x     1 x   442             20639632     100.0%      0.0%      0.0%
 flops    65 x    32 x   442             25742080     100.0%      0.0%      0.0%
 flops    65 x    33 x   456             27387360     100.0%      0.0%      0.0%
 flops    32 x    32 x   442             32587776     100.0%      0.0%      0.0%
 flops   912 x     1 x    32             34670592     100.0%      0.0%      0.0%
 flops    64 x     1 x   456             35137536     100.0%      0.0%      0.0%
 flops   898 x    33 x   442             52392912     100.0%      0.0%      0.0%
 flops   912 x     1 x   442             62884224     100.0%      0.0%      0.0%
 flops    64 x    33 x   456             80898048     100.0%      0.0%      0.0%
 flops   898 x     1 x   456            149053632     100.0%      0.0%      0.0%
 flops   912 x    33 x   442            159629184     100.0%      0.0%      0.0%
 flops    65 x    32 x   456            185902080     100.0%      0.0%      0.0%
 flops    32 x    32 x   456            235339776     100.0%      0.0%      0.0%
 flops    14 x    32 x    32            262176768     100.0%      0.0%      0.0%
 flops    29 x    32 x    32            273678336     100.0%      0.0%      0.0%
 flops     2 x     2 x    32            349569024     100.0%      0.0%      0.0%
 flops   898 x    33 x   456            378366912     100.0%      0.0%      0.0%
 flops   912 x     1 x   456            454132224     100.0%      0.0%      0.0%
 flops    14 x     1 x    14            658436520     100.0%      0.0%      0.0%
 flops     8 x     2 x    32            683827200     100.0%      0.0%      0.0%
 flops     2 x     8 x    32            683999232     100.0%      0.0%      0.0%
 flops    29 x     1 x    14            691288080     100.0%      0.0%      0.0%
 flops    14 x     1 x    29            691288080     100.0%      0.0%      0.0%
 flops    29 x     1 x    29            721981680     100.0%      0.0%      0.0%
 flops     8 x     8 x    32           1108574208     100.0%      0.0%      0.0%
 flops   912 x    33 x   456           1152797184     100.0%      0.0%      0.0%
 flops   898 x    32 x   442           2794288640     100.0%      0.0%      0.0%
 flops    64 x    32 x   442           3262398464     100.0%      0.0%      0.0%
 flops    64 x    32 x    32           4462739456     100.0%      0.0%      0.0%
 flops   912 x    32 x   442           8513556480     100.0%      0.0%      0.0%
 flops   898 x    32 x    32           8592293888     100.0%      0.0%      0.0%
 flops    14 x    14 x    32          18614493184     100.0%      0.0%      0.0%
 flops    29 x    14 x    32          19379906560     100.0%      0.0%      0.0%
 flops    14 x    29 x    32          19389052928     100.0%      0.0%      0.0%
 flops   898 x    32 x   456          20179568640     100.0%      0.0%      0.0%
 flops    29 x    29 x    32          20561629184     100.0%      0.0%      0.0%
 flops    64 x    32 x   456          23560126464     100.0%      0.0%      0.0%
 flops   912 x    32 x    32          26178748416     100.0%      0.0%      0.0%
 flops   912 x    32 x   456          61482516480     100.0%      0.0%      0.0%
 flops    14 x    32 x    14          62607906816     100.0%      0.0%      0.0%
 flops    29 x    32 x    14          65731620864     100.0%      0.0%      0.0%
 flops    14 x    32 x    29          65731620864     100.0%      0.0%      0.0%
 flops    29 x    32 x    29          68650143744     100.0%      0.0%      0.0%
 flops inhomo. stacks                     1119778     100.0%      0.0%      0.0%
 flops total                       508.960286E+09     100.0%      0.0%      0.0%
 flops max/rank                     16.712213E+09     100.0%      0.0%      0.0%
 matmuls inhomo. stacks                       869     100.0%      0.0%      0.0%
 matmuls total                           21557554     100.0%      0.0%      0.0%
 number of processed stacks                175309     100.0%      0.0%      0.0%
 average stack size                                   123.0       0.0       0.0
 marketing flops                   592.097968E+09
 -------------------------------------------------------------------------------
 # multiplications                           1089
 max memory usage/rank             418.082816E+06
 # max total images/rank                        2
 # max 3D layers                                1
 # MPI messages exchanged                  731808
 MPI messages size (bytes):
  total size                       155.634942E+09
  min size                           0.000000E+00
  max size                           3.326976E+06
  average size                     212.671828E+03
 MPI breakdown and total messages size (bytes):
             size <=      128              412664                    37072
       128 < size <=     8192              120232                864948336
      8192 < size <=    32768               45472                822228400
     32768 < size <=   131072               64736               7212424128
    131072 < size <=  4194304               88704             146735883168
   4194304 < size <= 16777216                   0                        0
  16777216 < size                               0                        0
 -------------------------------------------------------------------------------

 *** WARNING in dbcsr/mm/dbcsr_mm.F:268 :: Using a non-square number of ***
 *** MPI ranks might lead to poor performance.                          ***
 *** Used ranks: 32                                                     ***
 *** Suggested: 36 64                                                   ***

 -------------------------------------------------------------------------------
 
 MEMORY| Estimated peak process memory [MiB]                                 399

 -------------------------------------------------------------------------------
 -                                                                             -
 -                         MESSAGE PASSING PERFORMANCE                         -
 -                                                                             -
 -------------------------------------------------------------------------------

 ROUTINE             CALLS      AVE VOLUME [Bytes]
 MP_Group              133
 MP_Bcast             1445                1124657.
 MP_Allreduce         7739                    517.
 MP_Sync               185
 MP_Alltoall          6433                1485417.
 MP_ISendRecv         5394                  74134.
 MP_Wait             95920
 MP_comm_split          73
 MP_ISend            53790                 119413.
 MP_IRecv            53594                 120341.
 MP_Recv                14                 930304.
 MP_Memory           63038
 -------------------------------------------------------------------------------


 -------------------------------------------------------------------------------
 -                                                                             -
 -                           R E F E R E N C E S                               -
 -                                                                             -
 -------------------------------------------------------------------------------
 
 CP2K version 6.1, the CP2K developers group (2018).
 CP2K is freely available from https://www.cp2k.org/ .

 Schuett, Ole; Messmer, Peter; Hutter, Juerg; VandeVondele, Joost. 
 Electronic Structure Calculations on Graphics Processing Units, John Wiley & Sons, Ltd, 173-190 (2016). 
 GPU-Accelerated Sparse Matrix-Matrix Multiplication for Linear Scaling Density Functional Theory.
 http://dx.doi.org/10.1002/9781118670712.ch8


 Borstnik, U; VandeVondele, J; Weber, V; Hutter, J. 
 PARALLEL COMPUTING, 40 (5-6), 47-58 (2014). 
 Sparse matrix multiplication: The distributed block-compressed sparse
 row library.
 http://dx.doi.org/10.1016/j.parco.2014.03.012


 Hutter, J; Iannuzzi, M; Schiffmann, F; VandeVondele, J. 
 WILEY INTERDISCIPLINARY REVIEWS-COMPUTATIONAL MOLECULAR SCIENCE, 4 (1), 15-25 (2014). 
 CP2K: atomistic simulations of condensed matter systems.
 http://dx.doi.org/10.1002/wcms.1159


 Sabatini, R; Gorni, T; de Gironcoli, S. 
 Phys. Rev. B, 87 (4), 041108(R) (2013). 
 Nonlocal van der Waals density functional made simple and efficient.
 http://dx.doi.org/10.1103/PhysRevB.87.041108


 Guidon, M; Hutter, J; VandeVondele, J. 
 JOURNAL OF CHEMICAL THEORY AND COMPUTATION, 6 (8), 2348-2364 (2010). 
 Auxiliary Density Matrix Methods for Hartree-Fock Exchange Calculations.
 http://dx.doi.org/10.1021/ct1002225


 Guidon, M; Hutter, J; VandeVondele, J. 
 JOURNAL OF CHEMICAL THEORY AND COMPUTATION, 5 (11), 3010-3021 (2009). 
 Robust Periodic Hartree-Fock Exchange for Large-Scale Simulations Using
 Gaussian Basis Sets.
 http://dx.doi.org/10.1021/ct900494g


 Roman-Perez, G; Soler, JM. 
 Phys. Rev. Lett., 103 (9), 096102 (2009). 
 Efficient Implementation of a van der Waals Density Functional:
 Application to Double-Wall Carbon Nanotubes.
 http://dx.doi.org/10.1103/PhysRevLett.103.096102


 Guidon, M; Schiffmann, F; Hutter, J; VandeVondele, J. 
 JOURNAL OF CHEMICAL PHYSICS, 128 (21), 214104 (2008). 
 Ab initio molecular dynamics using hybrid density functionals.
 http://dx.doi.org/10.1063/1.2931945


 VandeVondele, J; Hutter, J. 
 JOURNAL OF CHEMICAL PHYSICS, 127 (11), 114105 (2007). 
 Gaussian basis sets for accurate calculations on molecular systems in
 gas and condensed phases.
 http://dx.doi.org/10.1063/1.2770708


 Krack, M. 
 THEORETICAL CHEMISTRY ACCOUNTS, 114 (1-3), 145-152 (2005). 
 Pseudopotentials for H to Kr optimized for gradient-corrected
 exchange-correlation functionals.
 http://dx.doi.org/10.1007/s00214-005-0655-y


 VandeVondele, J; Krack, M; Mohamed, F; Parrinello, M; Chassaing, T;
 Hutter, J. COMPUTER PHYSICS COMMUNICATIONS, 167 (2), 103-128 (2005). 
 QUICKSTEP: Fast and accurate density functional calculations using a
 mixed Gaussian and plane waves approach.
 http://dx.doi.org/10.1016/j.cpc.2004.12.014


 Frigo, M; Johnson, SG. 
 PROCEEDINGS OF THE IEEE, 93 (2), 216-231 (2005). 
 The design and implementation of FFTW3.
 http://dx.doi.org/10.1109/JPROC.2004.840301


 Heyd, J; Scuseria, GE. 
 JOURNAL OF CHEMICAL PHYSICS, 120 (16), 7274-7280 (2004). 
 Assessment and validation of a screened Coulomb hybrid density
 functional.
 http://dx.doi.org/10.1063/1.1668634


 VandeVondele, J; Hutter, J. 
 JOURNAL OF CHEMICAL PHYSICS, 118 (10), 4365-4369 (2003). 
 An efficient orbital transformation method for electronic structure
 calculations.
 http://dx.doi.org/10.1063/1.1543154


 Hartwigsen, C; Goedecker, S; Hutter, J. 
 PHYSICAL REVIEW B, 58 (7), 3641-3662 (1998). 
 Relativistic separable dual-space Gaussian pseudopotentials from H to Rn.
 http://dx.doi.org/10.1103/PhysRevB.58.3641


 Lippert, G; Hutter, J; Parrinello, M. 
 MOLECULAR PHYSICS, 92 (3), 477-487 (1997). 
 A hybrid Gaussian and plane wave density functional scheme.
 http://dx.doi.org/10.1080/002689797170220


 Perdew, JP; Burke, K; Ernzerhof, M. 
 PHYSICAL REVIEW LETTERS, 77 (18), 3865-3868 (1996). 
 Generalized gradient approximation made simple.
 http://dx.doi.org/10.1103/PhysRevLett.77.3865


 Goedecker, S; Teter, M; Hutter, J. 
 PHYSICAL REVIEW B, 54 (3), 1703-1710 (1996). 
 Separable dual-space Gaussian pseudopotentials.
 http://dx.doi.org/10.1103/PhysRevB.54.1703


 -------------------------------------------------------------------------------
 -                                                                             -
 -                                T I M I N G                                  -
 -                                                                             -
 -------------------------------------------------------------------------------
 SUBROUTINE                       CALLS  ASD         SELF TIME        TOTAL TIME
                                MAXIMUM       AVERAGE  MAXIMUM  AVERAGE  MAXIMUM
 CP2K                                 1  1.0    0.062    0.070  422.682  422.682
 qs_energies                          1  2.0    0.000    0.000  421.488  421.489
 scf_env_do_scf                       1  3.0    0.000    0.000  306.262  306.262
 qs_ks_update_qs_env                 22  5.0    0.000    0.000  242.906  242.907
 rebuild_ks_matrix                   21  6.0    0.000    0.000  242.866  242.867
 qs_ks_build_kohn_sham_matrix        21  7.0    0.003    0.003  242.865  242.867
 scf_env_do_scf_inner_loop           21  4.0    0.001    0.001  236.098  236.107
 dbcsr_multiply_generic            1089  8.6    0.069    0.070  168.620  168.798
 hfx_ks_matrix                       21  8.0    0.001    0.001  159.244  159.289
 integrate_four_center               21  9.0    0.074    0.328  159.212  159.256
 integrate_four_center_main          21 10.0    0.006    0.007  149.083  151.619
 integrate_four_center_bin         1344 11.0  149.077  151.613  149.077  151.613
 scf_post_calculation_gpw             1  3.0    0.000    0.000  113.699  113.700
 make_lumo                            1  4.0    0.000    0.000  113.370  113.370
 ot_eigensolver                       1  5.0    0.001    0.001  113.079  113.080
 multiply_cannon                   1089  9.6    0.190    0.195   89.161   89.626
 mp_deallocate_d                  17840 12.7   83.334   83.593   83.334   83.593
 ot_mini                             72  6.6    0.000    0.000   79.461   79.462
 qs_ot_get_derivative                37  7.6    0.000    0.000   71.250   71.259
 init_scf_loop                        1  4.0    0.000    0.000   70.153   70.153
 dbcsr_destroy                    15436 10.4    0.055    0.058   66.155   66.274
 mp_deallocate_i                  13757 12.7   62.651   63.275   62.651   63.275
 make_m2s                          2178  9.6    0.065    0.068   58.672   59.015
 qs_vxc_create                       42  8.0    0.002    0.004   58.341   58.372
 dbcsr_data_release               75204 12.2    0.230    0.269   49.162   49.274
 qs_scf_new_mos                      21  5.0    0.000    0.000   49.058   49.067
 qs_scf_loop_do_ot                   21  6.0    0.000    0.000   49.058   49.067
 xc_rho_set_and_dset_create          42 10.0    0.124    0.140   43.465   46.890
 ot_scf_mini                         21  7.0    0.001    0.001   45.214   45.225
 xc_functional_eval                 105 11.0    0.001    0.001   35.056   38.451
 make_images                       2178 10.6    0.108    0.113   36.449   36.835
 qs_ot_get_p                         75  6.6    0.001    0.001   34.298   34.436
 qs_ot_get_derivative_diag           23  8.0    0.001    0.001   33.999   34.010
 setup_buffer_matrices             2178 10.6    0.043    0.046   32.024   32.076
 xc_vxc_pw_create                    22  9.0    0.105    0.111   32.005   32.005
 dbcsr_create_new                 16023 11.2    0.087    0.090   30.662   30.891
 dbcsr_make_index_exist           16023 12.2    0.044    0.046   30.054   30.302
 pw_transfer                       1478 10.0    0.084    0.097   24.341   27.590
 fft_wrap_pw1pw2                   1341 11.1    0.010    0.012   24.001   27.245
 fft_wrap_pw1pw2_400                345 12.2    1.839    2.095   20.013   23.122
 dbcsr_make_images_dense           1876 10.9    0.033    0.034   22.125   22.182
 qs_ot_get_orbitals                  74  6.6    0.000    0.000   21.718   21.746
 fft3d_ps                          1341 13.1    9.413    9.730   18.084   21.511
 xpbe_hole_t_c_lr_lda_eval           42 12.0   19.148   20.717   19.148   20.717
 calculate_rho_elec                  43  7.5    9.561    9.705   20.303   20.315
 qs_ot_get_derivative_taylor         14  9.6    0.001    0.001   20.046   20.049
 xc_exc_calc                         20  9.0    0.036    0.038   19.847   19.847
 dbcsr_special_finalize            3267 11.6    0.013    0.013   16.408   16.840
 xwpbe_lda_eval                      42 12.0   13.173   15.361   13.173   15.361
 buffer_matrices_ensure_size       2178 10.6    0.324    0.339   14.888   15.172
 quick_finalize                    3202 12.6    0.016    0.018   14.189   14.616
 qs_ot_p2m_diag                      50  7.0    0.001    0.002   14.278   14.318
 qs_rho_update_rho                   22  5.0    0.000    0.000   13.067   13.076
 dbcsr_switch_data_area            8595 12.5    0.011    0.011   12.894   13.008
 admm_mo_calc_rho_aux                21  8.0    0.000    0.000   12.095   12.127
 mp_waitall_1                     93038 12.0   11.281   11.673   11.281   11.673
 mp_alltoall_z22v                  1341 15.1    6.206   10.362    6.206   10.362
 density_rs2pw                       43  8.5    0.003    0.003    9.687    9.879
 sum_up_and_integrate                11  8.0    0.076    0.080    9.103    9.104
 integrate_v_rspace                  22  9.0    4.509    4.624    9.025    9.035
 yz_to_x                            725 13.9    0.841    0.940    5.015    8.826
 apply_preconditioner_dbcsr          40  8.6    0.000    0.000    8.727    8.765
 apply_single                        40  9.6    0.000    0.000    8.727    8.765
 -------------------------------------------------------------------------------

 The number of warnings for this run is : 2
 
 -------------------------------------------------------------------------------
  **** **** ******  **  PROGRAM ENDED AT                 2024-03-15 23:42:16.402
 ***** ** ***  *** **   PROGRAM RAN ON                                      tc13
 **    ****   ******    PROGRAM RAN BY                                  fambrosi
 ***** **    ** ** **   PROGRAM PROCESS ID                                  4998
  **** **  *******  **  PROGRAM STOPPED IN          /scratch/fambrosi.55103.tccw
