 DBCSR| Multiplication driver                                               BLAS
 DBCSR| Multrec recursion limit                                              512
 DBCSR| Multiplication stack size                                           1000
 DBCSR| Maximum elements for images                                    UNLIMITED
 DBCSR| Multiplicative factor virtual images                                   1
 DBCSR| Multiplication size stacks                                             3
 DBCSR| Number of 3D layers                                               SINGLE
 DBCSR| Use MPI memory allocation                                              T
 DBCSR| Use RMA algorithm                                                      F
 DBCSR| Use Communication thread                                               T
 DBCSR| Communication thread load                                             87


  **** **** ******  **  PROGRAM STARTED AT               2024-03-14 23:14:47.302
 ***** ** ***  *** **   PROGRAM STARTED ON                                  tc23
 **    ****   ******    PROGRAM STARTED BY                              fambrosi
 ***** **    ** ** **   PROGRAM PROCESS ID                                 17982
  **** **  *******  **  PROGRAM STARTED IN          /scratch/fambrosi.55027.tccw

 CP2K| version string:                                          CP2K version 6.1
 CP2K| source code revision number:                                    svn:18464
 CP2K| cp2kflags: libint fftw3 libxc parallel mpi3 scalapack has_no_shared_glibc
 CP2K|             libderiv_max_am1=5 libint_max_am=6 max_contr=4 mkl
 CP2K| is freely available from                            https://www.cp2k.org/
 CP2K| Program compiled at                         Mon Jun 25 12:26:44 CEST 2018
 CP2K| Program compiled on                                                  tccw
 CP2K| Program compiled for                     Linux-x86-64-intel.MPI-OPENMP.O2
 CP2K| Data directory path                           /home/edoardo/cp2k-6.1/data
 CP2K| Input file name        /home/fambrosi/hydroxyl/test-koopman/radical/gga5/
 
 GLOBAL| Force Environment number                                              1
 GLOBAL| Basis set file name               /usr/local/cp2k-6.1/data/BASIS_MOLOPT
 GLOBAL| Potential file name             /usr/local/cp2k-6.1/data/GTH_POTENTIALS
 GLOBAL| MM Potential file name                                     MM_POTENTIAL
 GLOBAL| Coordinate file name                                      __STD_INPUT__
 GLOBAL| Method name                                                        CP2K
 GLOBAL| Project name                                               water+I-.dyn
 GLOBAL| Preferred FFT library                                             FFTW3
 GLOBAL| Preferred diagonalization lib.                                       SL
 GLOBAL| Run type                                                         ENERGY
 GLOBAL| All-to-all communication in single precision                          F
 GLOBAL| FFTs using library dependent lengths                                  T
 GLOBAL| Global print level                                                  LOW
 GLOBAL| Total number of message passing processes                            64
 GLOBAL| Number of threads for this process                                    1
 GLOBAL| This output is from process                                           0
 GLOBAL| CPU model name :  Intel(R) Xeon(R) CPU E5-2683 v4 @ 2.10GHz

 MEMORY| system memory details [Kb]
 MEMORY|                        rank 0           min           max       average
 MEMORY| MemTotal            264564380     264564380     264564496     264564438
 MEMORY| MemFree              47543176      47543176     155458192     101500684
 MEMORY| Buffers                190496        190496        192484        191490
 MEMORY| Cached              207242216     102420544     207242216     154831380
 MEMORY| Slab                  5988144       2911240       5988144       4449692
 MEMORY| SReclaimable          5923740       2846556       5923740       4385148
 MEMORY| MemLikelyFree       260899628     260899628     260917776     260908702

 
 GENERATE|  Preliminary Number of Bonds generated:                             0
 GENERATE|  Achieved consistency in connectivity generation.

 *******************************************************************************
 *******************************************************************************
 **                                                                           **
 **     #####                         ##              ##                      **
 **    ##   ##            ##          ##              ##                      **
 **   ##     ##                       ##            ######                    **
 **   ##     ##  ##   ##  ##   #####  ##  ##   ####   ##    #####    #####    **
 **   ##     ##  ##   ##  ##  ##      ## ##   ##      ##   ##   ##  ##   ##   **
 **   ##  ## ##  ##   ##  ##  ##      ####     ###    ##   ######   ######    **
 **    ##  ###   ##   ##  ##  ##      ## ##      ##   ##   ##       ##        **
 **     #######   #####   ##   #####  ##  ##  ####    ##    #####   ##        **
 **           ##                                                    ##        **
 **                                                                           **
 **                                                ... make the atoms dance   **
 **                                                                           **
 **            Copyright (C) by CP2K developers group (2000 - 2018)           **
 **                                                                           **
 *******************************************************************************


 TOTAL NUMBERS AND MAXIMUM NUMBERS

  Total number of            - Atomic kinds:                                   2
                             - Atoms:                                        191
                             - Shell sets:                                  1146
                             - Shells:                                      1338
                             - Primitive Cartesian functions:               1528
                             - Cartesian basis functions:                   4081
                             - Spherical basis functions:                   3634

  Maximum angular momentum of- Orbital basis functions:                        3
                             - Local part of the GTH pseudopotential:          2
                             - Non-local part of the GTH pseudopotential:      0


 SCF PARAMETERS         Density guess:                                   RESTART
                        --------------------------------------------------------
                        max_scf:                                              50
                        max_scf_history:                                       0
                        max_diis:                                              4
                        --------------------------------------------------------
                        eps_scf:                                        1.00E-05
                        eps_scf_history:                                0.00E+00
                        eps_diis:                                       1.00E-01
                        eps_eigval:                                     1.00E-05
                        --------------------------------------------------------
                        level_shift [a.u.]:                                 0.00
                        --------------------------------------------------------
                        Outer loop SCF in use 
                        No variables optimised in outer loop
                        eps_scf                                         1.00E-05
                        max_scf                                               50
                        No outer loop optimization
                        step_size                                       5.00E-01

 Spin 1

 Number of electrons:                                                        256
 Number of occupied orbitals:                                                256
 Number of molecular orbitals:                                               256

 Spin 2

 Number of electrons:                                                        255
 Number of occupied orbitals:                                                255
 Number of molecular orbitals:                                               255

 Number of orbital functions:                                               3634
 Number of independent orbital functions:                                   3634

 Extrapolation method: initial_guess

 *** WARNING in qs_initial_guess.F:263 :: User requested to restart the    ***
 *** wavefunction from the file named: water+I-.dyn-RESTART.wfn. This file ***
 *** does not exist. Please check the existence of the file or change      ***
 *** properly the value of the keyword WFN_RESTART_FILE_NAME. Calculation  ***
 *** continues using ATOMIC GUESS.                                         ***



 SCF WAVEFUNCTION OPTIMIZATION

  ----------------------------------- OT ---------------------------------------
  Minimizer      : DIIS                : direct inversion
                                         in the iterative subspace
                                         using   7 DIIS vectors
                                         safer DIIS on
  Preconditioner : FULL_SINGLE_INVERSE : inversion of 
                                         H + eS - 2*(Sc)(c^T*H*c+const)(Sc)^T
  Precond_solver : DEFAULT
  stepsize       :    0.08000000                  energy_gap     :    0.08000000
  eps_taylor     :   0.10000E-15                  max_taylor     :             4
  ----------------------------------- OT ---------------------------------------

  Step     Update method      Time    Convergence         Total energy    Change
  ------------------------------------------------------------------------------
     1 OT DIIS     0.80E-01    7.8     0.00946380     -1060.6215853161 -1.06E+03
     2 OT DIIS     0.80E-01    7.6     0.00773614     -1072.3231053953 -1.17E+01
     3 OT DIIS     0.80E-01    7.6     0.00635483     -1084.1498365448 -1.18E+01
     4 OT DIIS     0.80E-01    7.6     0.00449659     -1094.7879924174 -1.06E+01
     5 OT DIIS     0.80E-01    8.0     0.00294901     -1100.3182066193 -5.53E+00
     6 OT DIIS     0.80E-01    7.8     0.00196922     -1103.1760810595 -2.86E+00
     7 OT DIIS     0.80E-01    7.6     0.00175474     -1103.6733047593 -4.97E-01
     8 OT DIIS     0.80E-01    7.5     0.00129468     -1104.4628817621 -7.90E-01
     9 OT DIIS     0.80E-01    7.6     0.00090690     -1104.9578447723 -4.95E-01
    10 OT DIIS     0.80E-01    7.8     0.00063487     -1105.2356783356 -2.78E-01
    11 OT DIIS     0.80E-01    8.0     0.00051858     -1105.2848155079 -4.91E-02
    12 OT DIIS     0.80E-01    7.6     0.00040883     -1105.4108183232 -1.26E-01
    13 OT DIIS     0.80E-01    7.5     0.00032582     -1105.4646568467 -5.38E-02
    14 OT DIIS     0.80E-01    7.9     0.00032660     -1105.4967129451 -3.21E-02
    15 OT DIIS     0.80E-01    7.6     0.00023357     -1105.5422148312 -4.55E-02
    16 OT DIIS     0.80E-01    7.8     0.00018553     -1105.5724354832 -3.02E-02
    17 OT DIIS     0.80E-01    8.1     0.00014769     -1105.5970716939 -2.46E-02
    18 OT DIIS     0.80E-01    7.8     0.00012233     -1105.6107771984 -1.37E-02
    19 OT DIIS     0.80E-01    7.7     0.00009369     -1105.6235320562 -1.28E-02
    20 OT DIIS     0.80E-01    7.7     0.00007508     -1105.6299786424 -6.45E-03
    21 OT DIIS     0.80E-01    7.7     0.00006147     -1105.6347003242 -4.72E-03
    22 OT DIIS     0.80E-01    7.9     0.00005139     -1105.6374581187 -2.76E-03
    23 OT DIIS     0.80E-01    7.9     0.00004253     -1105.6401123455 -2.65E-03
    24 OT DIIS     0.80E-01    7.9     0.00003640     -1105.6412132365 -1.10E-03
    25 OT DIIS     0.80E-01    7.7     0.00003060     -1105.6428399741 -1.63E-03
    26 OT DIIS     0.80E-01    7.6     0.00002686     -1105.6435751494 -7.35E-04
    27 OT DIIS     0.80E-01    7.7     0.00002310     -1105.6444329292 -8.58E-04
    28 OT DIIS     0.80E-01    7.6     0.00002008     -1105.6449726179 -5.40E-04
    29 OT DIIS     0.80E-01    7.7     0.00001813     -1105.6454502230 -4.78E-04
    30 OT DIIS     0.80E-01    7.7     0.00001651     -1105.6457640836 -3.14E-04
    31 OT DIIS     0.80E-01    7.7     0.00001464     -1105.6461163001 -3.52E-04
    32 OT DIIS     0.80E-01    7.6     0.00001329     -1105.6463789015 -2.63E-04
    33 OT DIIS     0.80E-01    7.7     0.00001188     -1105.6465784954 -2.00E-04
    34 OT DIIS     0.80E-01    7.6     0.00001097     -1105.6468156789 -2.37E-04
    35 OT DIIS     0.80E-01    7.6     0.00001011     -1105.6469293023 -1.14E-04
    36 OT DIIS     0.80E-01    8.0     0.00000931     -1105.6471303854 -2.01E-04

  *** SCF run converged in    36 steps ***


  Electronic density on regular grids:       -510.9999999999        0.0000000001
  Core density on regular grids:              510.9999999998       -0.0000000002
  Total charge density on r-space grids:       -0.0000000001
  Total charge density g-space grids:          -0.0000000001

  Overlap energy of the core charge distribution:               0.00000347777266
  Self energy of the core charge distribution:              -2836.80744583234036
  Core Hamiltonian energy:                                    833.52965424448735
  Hartree energy:                                            1172.90776483069862
  Exchange-correlation energy:                               -276.24754502528350
  Dispersion energy:                                            0.97043791923706

  Total energy:                                             -1105.64713038542800

  outer SCF iter =    1 RMS gradient =   0.93E-05 energy =      -1105.6471303854
  outer SCF loop converged in   1 iterations or   36 steps


  Integrated absolute spin density  :                               1.0832282334
  Ideal and single determinant S**2 :                    0.750000       0.753129

 ENERGY| Total FORCE_EVAL ( QS ) energy (a.u.):            -1105.647130385427999


 -------------------------------------------------------------------------------
 -                                                                             -
 -                                DBCSR STATISTICS                             -
 -                                                                             -
 -------------------------------------------------------------------------------
 COUNTER                                    TOTAL       BLAS       SMM       ACC
 flops    14 x    31 x    31              6834632     100.0%      0.0%      0.0%
 flops    29 x    31 x    31              7134464     100.0%      0.0%      0.0%
 flops    31 x    31 x    31             18947076     100.0%      0.0%      0.0%
 flops    14 x    32 x    31             24692864     100.0%      0.0%      0.0%
 flops    14 x    31 x    32             24692864     100.0%      0.0%      0.0%
 flops    29 x    32 x    31             25776128     100.0%      0.0%      0.0%
 flops    29 x    31 x    32             25776128     100.0%      0.0%      0.0%
 flops    31 x    31 x   442            122331456     100.0%      0.0%      0.0%
 flops    31 x    31 x    32            136907904     100.0%      0.0%      0.0%
 flops    31 x    32 x    31            136907904     100.0%      0.0%      0.0%
 flops    32 x    31 x    31            136907904     100.0%      0.0%      0.0%
 flops   442 x    31 x    31            151215272     100.0%      0.0%      0.0%
 flops   442 x    31 x   442            448165016     100.0%      0.0%      0.0%
 flops    14 x    32 x    32            466092032     100.0%      0.0%      0.0%
 flops    29 x    32 x    32            486539264     100.0%      0.0%      0.0%
 flops    32 x    31 x   442            880435712     100.0%      0.0%      0.0%
 flops    31 x    32 x   442            881312640     100.0%      0.0%      0.0%
 flops    31 x    31 x   456            883443456     100.0%      0.0%      0.0%
 flops    32 x    32 x    31            989270016     100.0%      0.0%      0.0%
 flops    31 x    32 x    32            989270016     100.0%      0.0%      0.0%
 flops    32 x    31 x    32            989270016     100.0%      0.0%      0.0%
 flops   456 x    31 x    31           1092034272     100.0%      0.0%      0.0%
 flops   442 x    32 x    31           1092652288     100.0%      0.0%      0.0%
 flops   442 x    31 x    32           1092652288     100.0%      0.0%      0.0%
 flops   456 x    31 x   442           3236522016     100.0%      0.0%      0.0%
 flops   442 x    31 x   456           3236522016     100.0%      0.0%      0.0%
 flops    14 x    14 x    31           3723640144     100.0%      0.0%      0.0%
 flops    29 x    14 x    31           3881774120     100.0%      0.0%      0.0%
 flops    14 x    29 x    31           3882705484     100.0%      0.0%      0.0%
 flops    29 x    29 x    31           4119374426     100.0%      0.0%      0.0%
 flops    32 x    31 x   456           6358259712     100.0%      0.0%      0.0%
 flops    31 x    32 x   456           6364592640     100.0%      0.0%      0.0%
 flops   442 x    32 x   442           6939329280     100.0%      0.0%      0.0%
 flops   456 x    31 x    32           7890828288     100.0%      0.0%      0.0%
 flops   456 x    32 x    31           7890828288     100.0%      0.0%      0.0%
 flops    32 x    32 x   442          14685319168     100.0%      0.0%      0.0%
 flops    14 x    31 x    14          15357247976     100.0%      0.0%      0.0%
 flops    29 x    31 x    14          16141368796     100.0%      0.0%      0.0%
 flops    14 x    31 x    29          16141368796     100.0%      0.0%      0.0%
 flops    29 x    31 x    29          16864078492     100.0%      0.0%      0.0%
 flops    32 x    32 x    32          17818583040     100.0%      0.0%      0.0%
 flops   442 x    32 x    32          18207514624     100.0%      0.0%      0.0%
 flops   456 x    31 x   456          23373254016     100.0%      0.0%      0.0%
 flops   442 x    32 x   456          50113889280     100.0%      0.0%      0.0%
 flops   456 x    32 x   442          50113889280     100.0%      0.0%      0.0%
 flops    14 x    14 x    32          57656363520     100.0%      0.0%      0.0%
 flops    29 x    14 x    32          60104889600     100.0%      0.0%      0.0%
 flops    14 x    29 x    32          60119310720     100.0%      0.0%      0.0%
 flops    29 x    29 x    32          63783862080     100.0%      0.0%      0.0%
 flops    32 x    32 x   456         106053255168     100.0%      0.0%      0.0%
 flops   456 x    32 x    32         131489562624     100.0%      0.0%      0.0%
 flops    14 x    32 x    14         236184315136     100.0%      0.0%      0.0%
 flops    29 x    32 x    14         248243574656     100.0%      0.0%      0.0%
 flops    14 x    32 x    29         248243574656     100.0%      0.0%      0.0%
 flops    29 x    32 x    29         259358371712     100.0%      0.0%      0.0%
 flops   456 x    32 x   456         361908449280     100.0%      0.0%      0.0%
 flops inhomo. stacks                           0       0.0%      0.0%      0.0%
 flops total                         2.140596E+12     100.0%      0.0%      0.0%
 flops max/rank                     33.831948E+09     100.0%      0.0%      0.0%
 matmuls inhomo. stacks                         0       0.0%      0.0%      0.0%
 matmuls total                           57446616     100.0%      0.0%      0.0%
 number of processed stacks               1172288     100.0%      0.0%      0.0%
 average stack size                                    49.0       0.0       0.0
 marketing flops                     2.401323E+12
 -------------------------------------------------------------------------------
 # multiplications                           1593
 max memory usage/rank             273.469440E+06
 # max total images/rank                        1
 # max 3D layers                                1
 # MPI messages exchanged                 1427328
 MPI messages size (bytes):
  total size                       245.053981E+09
  min size                           0.000000E+00
  max size                           1.663488E+06
  average size                     171.687219E+03
 MPI breakdown and total messages size (bytes):
             size <=      128                2576                        0
       128 < size <=     8192              730352               5959718016
      8192 < size <=    32768                   0                        0
     32768 < size <=   131072              590912              68581662016
    131072 < size <=  4194304              103488             170511461904
   4194304 < size <= 16777216                   0                        0
  16777216 < size                               0                        0
 -------------------------------------------------------------------------------
 
 MEMORY| Estimated peak process memory [MiB]                                 261

 -------------------------------------------------------------------------------
 -                                                                             -
 -                         MESSAGE PASSING PERFORMANCE                         -
 -                                                                             -
 -------------------------------------------------------------------------------

 ROUTINE             CALLS      AVE VOLUME [Bytes]
 MP_Group               99
 MP_Bcast             5698                 170726.
 MP_Allreduce        22942                    286.
 MP_Sync                76
 MP_Alltoall          8980                1246055.
 MP_ISendRecv        18396                  47520.
 MP_Wait            153454
 MP_comm_split          72
 MP_ISend            57414                  99134.
 MP_IRecv            57414                  99348.
 MP_Recv                28                 930304.
 MP_Memory           63988
 -------------------------------------------------------------------------------


 -------------------------------------------------------------------------------
 -                                                                             -
 -                           R E F E R E N C E S                               -
 -                                                                             -
 -------------------------------------------------------------------------------
 
 CP2K version 6.1, the CP2K developers group (2018).
 CP2K is freely available from https://www.cp2k.org/ .

 Lehtola, S; Steigemann, C; Oliveira, MJT; Marques, MAL. 
 SoftwareX, 7, 1-5 (2018). 
 Recent developments in libxc - A comprehensive library of functionals
 for density functional theory.
 http://dx.doi.org/10.1016/j.softx.2017.11.002


 Schuett, Ole; Messmer, Peter; Hutter, Juerg; VandeVondele, Joost. 
 Electronic Structure Calculations on Graphics Processing Units, John Wiley & Sons, Ltd, 173-190 (2016). 
 GPU-Accelerated Sparse Matrix-Matrix Multiplication for Linear Scaling Density Functional Theory.
 http://dx.doi.org/10.1002/9781118670712.ch8


 Borstnik, U; VandeVondele, J; Weber, V; Hutter, J. 
 PARALLEL COMPUTING, 40 (5-6), 47-58 (2014). 
 Sparse matrix multiplication: The distributed block-compressed sparse
 row library.
 http://dx.doi.org/10.1016/j.parco.2014.03.012


 Hutter, J; Iannuzzi, M; Schiffmann, F; VandeVondele, J. 
 WILEY INTERDISCIPLINARY REVIEWS-COMPUTATIONAL MOLECULAR SCIENCE, 4 (1), 15-25 (2014). 
 CP2K: atomistic simulations of condensed matter systems.
 http://dx.doi.org/10.1002/wcms.1159


 Sabatini, R; Gorni, T; de Gironcoli, S. 
 Phys. Rev. B, 87 (4), 041108(R) (2013). 
 Nonlocal van der Waals density functional made simple and efficient.
 http://dx.doi.org/10.1103/PhysRevB.87.041108


 Marques, MAL; Oliveira, MJT; Burnus, T. 
 COMPUTER PHYSICS COMMUNICATIONS, 183 (10), 2272-2281 (2012). 
 LIBXC: A library of exchange and correlation functionals for density
 functional theory.
 http://dx.doi.org/10.1016/j.cpc.2012.05.007


 Roman-Perez, G; Soler, JM. 
 Phys. Rev. Lett., 103 (9), 096102 (2009). 
 Efficient Implementation of a van der Waals Density Functional:
 Application to Double-Wall Carbon Nanotubes.
 http://dx.doi.org/10.1103/PhysRevLett.103.096102


 VandeVondele, J; Hutter, J. 
 JOURNAL OF CHEMICAL PHYSICS, 127 (11), 114105 (2007). 
 Gaussian basis sets for accurate calculations on molecular systems in
 gas and condensed phases.
 http://dx.doi.org/10.1063/1.2770708


 Krack, M. 
 THEORETICAL CHEMISTRY ACCOUNTS, 114 (1-3), 145-152 (2005). 
 Pseudopotentials for H to Kr optimized for gradient-corrected
 exchange-correlation functionals.
 http://dx.doi.org/10.1007/s00214-005-0655-y


 VandeVondele, J; Krack, M; Mohamed, F; Parrinello, M; Chassaing, T;
 Hutter, J. COMPUTER PHYSICS COMMUNICATIONS, 167 (2), 103-128 (2005). 
 QUICKSTEP: Fast and accurate density functional calculations using a
 mixed Gaussian and plane waves approach.
 http://dx.doi.org/10.1016/j.cpc.2004.12.014


 Frigo, M; Johnson, SG. 
 PROCEEDINGS OF THE IEEE, 93 (2), 216-231 (2005). 
 The design and implementation of FFTW3.
 http://dx.doi.org/10.1109/JPROC.2004.840301


 VandeVondele, J; Hutter, J. 
 JOURNAL OF CHEMICAL PHYSICS, 118 (10), 4365-4369 (2003). 
 An efficient orbital transformation method for electronic structure
 calculations.
 http://dx.doi.org/10.1063/1.1543154


 Hartwigsen, C; Goedecker, S; Hutter, J. 
 PHYSICAL REVIEW B, 58 (7), 3641-3662 (1998). 
 Relativistic separable dual-space Gaussian pseudopotentials from H to Rn.
 http://dx.doi.org/10.1103/PhysRevB.58.3641


 Lippert, G; Hutter, J; Parrinello, M. 
 MOLECULAR PHYSICS, 92 (3), 477-487 (1997). 
 A hybrid Gaussian and plane wave density functional scheme.
 http://dx.doi.org/10.1080/002689797170220


 Goedecker, S; Teter, M; Hutter, J. 
 PHYSICAL REVIEW B, 54 (3), 1703-1710 (1996). 
 Separable dual-space Gaussian pseudopotentials.
 http://dx.doi.org/10.1103/PhysRevB.54.1703


 -------------------------------------------------------------------------------
 -                                                                             -
 -                                T I M I N G                                  -
 -                                                                             -
 -------------------------------------------------------------------------------
 SUBROUTINE                       CALLS  ASD         SELF TIME        TOTAL TIME
                                MAXIMUM       AVERAGE  MAXIMUM  AVERAGE  MAXIMUM
 CP2K                                 1  1.0    0.045    0.052  281.847  281.848
 qs_energies                          1  2.0    0.000    0.000  281.118  281.118
 scf_env_do_scf                       1  3.0    0.000    0.000  279.121  279.121
 scf_env_do_scf_inner_loop           36  4.0    0.002    0.002  274.610  274.621
 dbcsr_multiply_generic            1593 10.1    0.095    0.097  186.821  187.224
 qs_scf_new_mos                      36  5.0    0.000    0.000  179.342  179.405
 qs_scf_loop_do_ot                   36  6.0    0.000    0.000  179.342  179.405
 ot_scf_mini                         36  7.0    0.002    0.002  170.162  170.182
 ot_mini                             36  8.0    0.000    0.000  117.463  117.493
 qs_ot_get_derivative                72  9.0    0.001    0.001  105.888  105.980
 multiply_cannon                   1593 11.1    0.240    0.246   93.528   94.520
 mp_deallocate_d                  18424 14.3   88.052   90.686   88.052   90.686
 qs_ot_get_derivative_diag           70 10.0    0.002    0.002   80.331   80.414
 dbcsr_destroy                    17972 11.8    0.060    0.062   71.732   73.820
 qs_ks_update_qs_env                 37  5.0    0.000    0.001   71.689   71.726
 rebuild_ks_matrix                   36  6.0    0.000    0.000   71.622   71.658
 qs_ks_build_kohn_sham_matrix        36  7.0    0.005    0.006   71.622   71.658
 make_m2s                          3186 11.1    0.099    0.102   68.545   69.288
 mp_deallocate_i                  13572 14.3   62.842   64.217   62.842   64.217
 dbcsr_data_release              106866 13.7    0.260    0.290   56.641   58.417
 make_images                       3186 12.1    0.131    0.137   41.601   41.926
 pw_transfer                       3611  9.9    0.170    0.213   38.812   40.239
 fft_wrap_pw1pw2                   3215 10.9    0.020    0.024   38.409   39.841
 qs_vxc_create                       36  8.0    0.003    0.005   38.353   38.417
 fft3d_ps                          3215 12.9   10.782   11.996   32.336   34.256
 setup_buffer_matrices             3186 12.1    0.042    0.043   31.927   32.879
 dbcsr_create_new                 18634 12.5    0.095    0.098   30.418   31.174
 fft_wrap_pw1pw2_400                797 11.9    2.238    2.698   29.781   30.668
 dbcsr_make_index_exist           18634 13.5    0.045    0.046   29.840   30.577
 qs_ot_get_p                         74  7.9    0.001    0.001   27.616   27.802
 dbcsr_make_images_dense           2860 12.3    0.040    0.041   26.800   27.321
 xc_vxc_pw_create                    36  9.0    0.412    0.467   27.055   27.166
 qs_rho_update_rho                   37  5.0    0.000    0.000   26.222   26.293
 calculate_rho_elec                  74  6.0   12.533   12.728   26.222   26.293
 sum_up_and_integrate                36  8.0    0.145    0.183   23.114   23.240
 integrate_v_rspace                  72  9.0   11.578   11.761   22.969   23.124
 mp_alltoall_z22v                  3215 14.9   19.201   22.089   19.201   22.089
 dbcsr_special_finalize            3186 13.1    0.013    0.013   16.952   17.277
 quick_finalize                    3569 13.9    0.019    0.021   16.933   17.258
 qs_ot_p2m_diag                      72  9.0    0.009    0.011   17.072   17.213
 qs_ot_get_orbitals                  72  8.0    0.000    0.000   16.242   16.312
 xc_rho_set_and_dset_create          36 10.0    0.235    0.267   14.228   15.183
 buffer_matrices_ensure_size       3186 12.1    0.182    0.210   14.757   15.101
 dbcsr_switch_data_area           10335 13.8    0.012    0.013   14.124   14.391
 mp_waitall_1                    147008 13.3   12.893   14.370   12.893   14.370
 yz_to_x                           1375 13.7    0.885    1.047   10.718   12.924
 rs_pw_transfer                     585  9.5    0.006    0.006   12.057   12.371
 density_rs2pw                       74  7.0    0.004    0.005   11.698   12.054
 calculate_dispersion_nonloc         36  9.0    1.025    1.293   11.296   11.421
 x_to_yz                           1694 14.1    1.351    1.656   10.712   11.331
 ot_diis_step                        36  9.0    0.003    0.003   11.241   11.241
 apply_preconditioner_dbcsr          74 10.0    0.000    0.000   10.989   11.121
 apply_single                        74 11.0    0.000    0.000   10.988   11.121
 potential_pw2rs                     72 10.0    0.018    0.021    9.853   10.039
 calculate_dm_sparse                 74  7.0    0.000    0.001    9.450    9.502
 make_images_sizes                 3186 13.1    0.005    0.005    7.328    8.477
 mp_alltoall_i44                   3186 14.1    7.323    8.472    7.323    8.472
 multiply_cannon_metrocomm1       12744 12.1    0.048    0.051    6.504    8.076
 fft_wrap_pw1pw2_100               1980 12.0    0.353    0.478    7.247    7.839
 mp_sum_l                          7678 11.2    6.051    7.359    6.051    7.359
 xc_functional_eval                  72 11.0    0.000    0.001    5.166    6.148
 libxc_lsd_eval                      72 12.0    5.165    6.147    5.166    6.147
 mp_allgather_i34                  1593 12.1    4.012    5.681    4.012    5.681
 -------------------------------------------------------------------------------

 The number of warnings for this run is : 1
 
 -------------------------------------------------------------------------------
  **** **** ******  **  PROGRAM ENDED AT                 2024-03-14 23:19:29.812
 ***** ** ***  *** **   PROGRAM RAN ON                                      tc23
 **    ****   ******    PROGRAM RAN BY                                  fambrosi
 ***** **    ** ** **   PROGRAM PROCESS ID                                 17982
  **** **  *******  **  PROGRAM STOPPED IN          /scratch/fambrosi.55027.tccw
