 DBCSR| Multiplication driver                                               BLAS
 DBCSR| Multrec recursion limit                                              512
 DBCSR| Multiplication stack size                                           1000
 DBCSR| Maximum elements for images                                    UNLIMITED
 DBCSR| Multiplicative factor virtual images                                   1
 DBCSR| Multiplication size stacks                                             3
 DBCSR| Number of 3D layers                                               SINGLE
 DBCSR| Use MPI memory allocation                                              T
 DBCSR| Use RMA algorithm                                                      F
 DBCSR| Use Communication thread                                               T
 DBCSR| Communication thread load                                             87


  **** **** ******  **  PROGRAM STARTED AT               2024-03-14 22:42:35.661
 ***** ** ***  *** **   PROGRAM STARTED ON                                  tc16
 **    ****   ******    PROGRAM STARTED BY                              fambrosi
 ***** **    ** ** **   PROGRAM PROCESS ID                                  4664
  **** **  *******  **  PROGRAM STARTED IN          /scratch/fambrosi.55022.tccw

 CP2K| version string:                                          CP2K version 6.1
 CP2K| source code revision number:                                    svn:18464
 CP2K| cp2kflags: libint fftw3 libxc parallel mpi3 scalapack has_no_shared_glibc
 CP2K|             libderiv_max_am1=5 libint_max_am=6 max_contr=4 mkl
 CP2K| is freely available from                            https://www.cp2k.org/
 CP2K| Program compiled at                         Mon Jun 25 12:26:44 CEST 2018
 CP2K| Program compiled on                                                  tccw
 CP2K| Program compiled for                     Linux-x86-64-intel.MPI-OPENMP.O2
 CP2K| Data directory path                           /home/edoardo/cp2k-6.1/data
 CP2K| Input file name        /home/fambrosi/hydroxyl/test-koopman/radical/gga/e
 
 GLOBAL| Force Environment number                                              1
 GLOBAL| Basis set file name               /usr/local/cp2k-6.1/data/BASIS_MOLOPT
 GLOBAL| Potential file name             /usr/local/cp2k-6.1/data/GTH_POTENTIALS
 GLOBAL| MM Potential file name                                     MM_POTENTIAL
 GLOBAL| Coordinate file name                                      __STD_INPUT__
 GLOBAL| Method name                                                        CP2K
 GLOBAL| Project name                                               water+I-.dyn
 GLOBAL| Preferred FFT library                                             FFTW3
 GLOBAL| Preferred diagonalization lib.                                       SL
 GLOBAL| Run type                                                         ENERGY
 GLOBAL| All-to-all communication in single precision                          F
 GLOBAL| FFTs using library dependent lengths                                  T
 GLOBAL| Global print level                                                  LOW
 GLOBAL| Total number of message passing processes                            64
 GLOBAL| Number of threads for this process                                    1
 GLOBAL| This output is from process                                           0
 GLOBAL| CPU model name :  Intel(R) Xeon(R) CPU E5-2683 v4 @ 2.10GHz

 MEMORY| system memory details [Kb]
 MEMORY|                        rank 0           min           max       average
 MEMORY| MemTotal            264564496     264564376     264564496     264564436
 MEMORY| MemFree              87864396      87864396     177621812     132743104
 MEMORY| Buffers                231412        231412        260316        245864
 MEMORY| Cached              169115044      80708388     169115044     124911716
 MEMORY| Slab                  3763016       2363576       3763016       3063296
 MEMORY| SReclaimable          3694380       2298468       3694380       2996424
 MEMORY| MemLikelyFree       260905232     260888984     260905232     260897108

 
 GENERATE|  Preliminary Number of Bonds generated:                             0
 GENERATE|  Achieved consistency in connectivity generation.

 *******************************************************************************
 *******************************************************************************
 **                                                                           **
 **     #####                         ##              ##                      **
 **    ##   ##            ##          ##              ##                      **
 **   ##     ##                       ##            ######                    **
 **   ##     ##  ##   ##  ##   #####  ##  ##   ####   ##    #####    #####    **
 **   ##     ##  ##   ##  ##  ##      ## ##   ##      ##   ##   ##  ##   ##   **
 **   ##  ## ##  ##   ##  ##  ##      ####     ###    ##   ######   ######    **
 **    ##  ###   ##   ##  ##  ##      ## ##      ##   ##   ##       ##        **
 **     #######   #####   ##   #####  ##  ##  ####    ##    #####   ##        **
 **           ##                                                    ##        **
 **                                                                           **
 **                                                ... make the atoms dance   **
 **                                                                           **
 **            Copyright (C) by CP2K developers group (2000 - 2018)           **
 **                                                                           **
 *******************************************************************************


 TOTAL NUMBERS AND MAXIMUM NUMBERS

  Total number of            - Atomic kinds:                                   2
                             - Atoms:                                        191
                             - Shell sets:                                  1146
                             - Shells:                                      1338
                             - Primitive Cartesian functions:               1528
                             - Cartesian basis functions:                   4081
                             - Spherical basis functions:                   3634

  Maximum angular momentum of- Orbital basis functions:                        3
                             - Local part of the GTH pseudopotential:          2
                             - Non-local part of the GTH pseudopotential:      0


 SCF PARAMETERS         Density guess:                                   RESTART
                        --------------------------------------------------------
                        max_scf:                                              50
                        max_scf_history:                                       0
                        max_diis:                                              4
                        --------------------------------------------------------
                        eps_scf:                                        1.00E-05
                        eps_scf_history:                                0.00E+00
                        eps_diis:                                       1.00E-01
                        eps_eigval:                                     1.00E-05
                        --------------------------------------------------------
                        level_shift [a.u.]:                                 0.00
                        --------------------------------------------------------
                        Outer loop SCF in use 
                        No variables optimised in outer loop
                        eps_scf                                         1.00E-05
                        max_scf                                               50
                        No outer loop optimization
                        step_size                                       5.00E-01

 Spin 1

 Number of electrons:                                                        256
 Number of occupied orbitals:                                                256
 Number of molecular orbitals:                                               256

 Spin 2

 Number of electrons:                                                        255
 Number of occupied orbitals:                                                255
 Number of molecular orbitals:                                               255

 Number of orbital functions:                                               3634
 Number of independent orbital functions:                                   3634

 Extrapolation method: initial_guess

 *** WARNING in qs_initial_guess.F:263 :: User requested to restart the    ***
 *** wavefunction from the file named: water+I-.dyn-RESTART.wfn. This file ***
 *** does not exist. Please check the existence of the file or change      ***
 *** properly the value of the keyword WFN_RESTART_FILE_NAME. Calculation  ***
 *** continues using ATOMIC GUESS.                                         ***



 SCF WAVEFUNCTION OPTIMIZATION

  ----------------------------------- OT ---------------------------------------
  Minimizer      : DIIS                : direct inversion
                                         in the iterative subspace
                                         using   7 DIIS vectors
                                         safer DIIS on
  Preconditioner : FULL_SINGLE_INVERSE : inversion of 
                                         H + eS - 2*(Sc)(c^T*H*c+const)(Sc)^T
  Precond_solver : DEFAULT
  stepsize       :    0.08000000                  energy_gap     :    0.08000000
  eps_taylor     :   0.10000E-15                  max_taylor     :             4
  ----------------------------------- OT ---------------------------------------

  Step     Update method      Time    Convergence         Total energy    Change
  ------------------------------------------------------------------------------
     1 OT DIIS     0.80E-01    8.2     0.00954439     -1061.0787073641 -1.06E+03
     2 OT DIIS     0.80E-01    7.7     0.00780103     -1073.0880096596 -1.20E+01
     3 OT DIIS     0.80E-01    8.0     0.00625018     -1086.2809148699 -1.32E+01
     4 OT DIIS     0.80E-01    7.9     0.00447662     -1095.7835230867 -9.50E+00
     5 OT DIIS     0.80E-01    7.6     0.00278183     -1101.2664623291 -5.48E+00
     6 OT DIIS     0.80E-01    7.7     0.00214148     -1102.8412132819 -1.57E+00
     7 OT DIIS     0.80E-01    7.7     0.00149718     -1104.2732226162 -1.43E+00
     8 OT DIIS     0.80E-01    7.8     0.00112656     -1104.8281237373 -5.55E-01
     9 OT DIIS     0.80E-01    7.6     0.00072869     -1105.2354277940 -4.07E-01
    10 OT DIIS     0.80E-01    7.8     0.00063092     -1105.2799455950 -4.45E-02
    11 OT DIIS     0.80E-01    7.5     0.00044932     -1105.4324701896 -1.53E-01
    12 OT DIIS     0.80E-01    7.7     0.00035983     -1105.4939918311 -6.15E-02
    13 OT DIIS     0.80E-01    7.8     0.00029111     -1105.5433368456 -4.93E-02
    14 OT DIIS     0.80E-01    7.8     0.00022509     -1105.5852991132 -4.20E-02
    15 OT DIIS     0.80E-01    7.7     0.00017005     -1105.6169663276 -3.17E-02
    16 OT DIIS     0.80E-01    7.9     0.00012845     -1105.6363678761 -1.94E-02
    17 OT DIIS     0.80E-01    8.0     0.00010322     -1105.6451982963 -8.83E-03
    18 OT DIIS     0.80E-01    8.1     0.00007963     -1105.6532105942 -8.01E-03
    19 OT DIIS     0.80E-01    8.0     0.00006223     -1105.6582011821 -4.99E-03
    20 OT DIIS     0.80E-01    7.9     0.00004984     -1105.6609125642 -2.71E-03
    21 OT DIIS     0.80E-01    7.6     0.00004085     -1105.6628828365 -1.97E-03
    22 OT DIIS     0.80E-01    7.6     0.00003433     -1105.6643549684 -1.47E-03
    23 OT DIIS     0.80E-01    7.7     0.00003042     -1105.6650856419 -7.31E-04
    24 OT DIIS     0.80E-01    7.8     0.00002645     -1105.6660300194 -9.44E-04
    25 OT DIIS     0.80E-01    7.8     0.00002308     -1105.6667144459 -6.84E-04
    26 OT DIIS     0.80E-01    7.9     0.00002046     -1105.6672927151 -5.78E-04
    27 OT DIIS     0.80E-01    7.6     0.00001868     -1105.6677144256 -4.22E-04
    28 OT DIIS     0.80E-01    7.5     0.00001732     -1105.6680499704 -3.36E-04
    29 OT DIIS     0.80E-01    7.8     0.00001577     -1105.6684550033 -4.05E-04
    30 OT DIIS     0.80E-01    7.7     0.00001475     -1105.6686906521 -2.36E-04
    31 OT DIIS     0.80E-01    8.0     0.00001316     -1105.6690312823 -3.41E-04
    32 OT DIIS     0.80E-01    8.1     0.00001182     -1105.6693074792 -2.76E-04
    33 OT DIIS     0.80E-01    8.0     0.00001007     -1105.6695821563 -2.75E-04
    34 OT DIIS     0.80E-01    7.8     0.00000957     -1105.6696607481 -7.86E-05

  *** SCF run converged in    34 steps ***


  Electronic density on regular grids:       -510.9999999999        0.0000000001
  Core density on regular grids:              510.9999999998       -0.0000000002
  Total charge density on r-space grids:       -0.0000000001
  Total charge density g-space grids:          -0.0000000001

  Overlap energy of the core charge distribution:               0.00000304788990
  Self energy of the core charge distribution:              -2836.80744583234036
  Core Hamiltonian energy:                                    833.03722256149615
  Hartree energy:                                            1173.24686532914666
  Exchange-correlation energy:                               -276.11486400815636
  Dispersion energy:                                            0.96855815385301

  Total energy:                                             -1105.66966074811103

  outer SCF iter =    1 RMS gradient =   0.96E-05 energy =      -1105.6696607481
  outer SCF loop converged in   1 iterations or   34 steps


  Integrated absolute spin density  :                               1.0864995684
  Ideal and single determinant S**2 :                    0.750000       0.753528

 ENERGY| Total FORCE_EVAL ( QS ) energy (a.u.):            -1105.669660748111028


 -------------------------------------------------------------------------------
 -                                                                             -
 -                                DBCSR STATISTICS                             -
 -                                                                             -
 -------------------------------------------------------------------------------
 COUNTER                                    TOTAL       BLAS       SMM       ACC
 flops    14 x    31 x    31              6834632     100.0%      0.0%      0.0%
 flops    29 x    31 x    31              7134464     100.0%      0.0%      0.0%
 flops    31 x    31 x    31             17874600     100.0%      0.0%      0.0%
 flops    14 x    32 x    31             24692864     100.0%      0.0%      0.0%
 flops    14 x    31 x    32             24692864     100.0%      0.0%      0.0%
 flops    29 x    32 x    31             25776128     100.0%      0.0%      0.0%
 flops    29 x    31 x    32             25776128     100.0%      0.0%      0.0%
 flops    31 x    31 x   442            115535264     100.0%      0.0%      0.0%
 flops    31 x    31 x    32            129158400     100.0%      0.0%      0.0%
 flops    31 x    32 x    31            129158400     100.0%      0.0%      0.0%
 flops    32 x    31 x    31            129158400     100.0%      0.0%      0.0%
 flops   442 x    31 x    31            142720032     100.0%      0.0%      0.0%
 flops   442 x    31 x   442            423939880     100.0%      0.0%      0.0%
 flops    14 x    32 x    32            466092032     100.0%      0.0%      0.0%
 flops    29 x    32 x    32            486539264     100.0%      0.0%      0.0%
 flops    32 x    31 x   442            831327744     100.0%      0.0%      0.0%
 flops    31 x    32 x   442            832204672     100.0%      0.0%      0.0%
 flops    31 x    31 x   456            834363264     100.0%      0.0%      0.0%
 flops    32 x    32 x    31            933273600     100.0%      0.0%      0.0%
 flops    31 x    32 x    32            933273600     100.0%      0.0%      0.0%
 flops    32 x    31 x    32            933273600     100.0%      0.0%      0.0%
 flops   456 x    31 x    31           1030684032     100.0%      0.0%      0.0%
 flops   442 x    32 x    31           1031267328     100.0%      0.0%      0.0%
 flops   442 x    31 x    32           1031267328     100.0%      0.0%      0.0%
 flops   456 x    31 x   442           3061574880     100.0%      0.0%      0.0%
 flops   442 x    31 x   456           3061574880     100.0%      0.0%      0.0%
 flops    14 x    14 x    31           3527275976     100.0%      0.0%      0.0%
 flops    14 x    29 x    31           3673073068     100.0%      0.0%      0.0%
 flops    29 x    14 x    31           3674835108     100.0%      0.0%      0.0%
 flops    29 x    29 x    31           3902567990     100.0%      0.0%      0.0%
 flops    32 x    31 x   456           6003615744     100.0%      0.0%      0.0%
 flops    31 x    32 x   456           6009948672     100.0%      0.0%      0.0%
 flops   442 x    32 x   442           6564230400     100.0%      0.0%      0.0%
 flops   456 x    31 x    32           7447523328     100.0%      0.0%      0.0%
 flops   456 x    32 x    31           7447523328     100.0%      0.0%      0.0%
 flops    32 x    32 x   442          13867003904     100.0%      0.0%      0.0%
 flops    14 x    31 x    14          14577843000     100.0%      0.0%      0.0%
 flops    29 x    31 x    14          15307093200     100.0%      0.0%      0.0%
 flops    14 x    31 x    29          15307093200     100.0%      0.0%      0.0%
 flops    29 x    31 x    29          16010201100     100.0%      0.0%      0.0%
 flops    32 x    32 x    32          16809984000     100.0%      0.0%      0.0%
 flops   442 x    32 x    32          17184620544     100.0%      0.0%      0.0%
 flops   456 x    31 x   456          22109834880     100.0%      0.0%      0.0%
 flops   442 x    32 x   456          47405030400     100.0%      0.0%      0.0%
 flops   456 x    32 x   442          47405030400     100.0%      0.0%      0.0%
 flops    14 x    14 x    32          54615886080     100.0%      0.0%      0.0%
 flops    14 x    29 x    32          56873389440     100.0%      0.0%      0.0%
 flops    29 x    14 x    32          56900672640     100.0%      0.0%      0.0%
 flops    29 x    29 x    32          60426859200     100.0%      0.0%      0.0%
 flops    32 x    32 x   456         100143611904     100.0%      0.0%      0.0%
 flops   456 x    32 x    32         124102508544     100.0%      0.0%      0.0%
 flops    14 x    32 x    14         224116309760     100.0%      0.0%      0.0%
 flops    29 x    32 x    14         235327629824     100.0%      0.0%      0.0%
 flops    14 x    32 x    29         235327629824     100.0%      0.0%      0.0%
 flops    29 x    32 x    29         246137044352     100.0%      0.0%      0.0%
 flops   456 x    32 x   456         342345830400     100.0%      0.0%      0.0%
 flops inhomo. stacks                           0       0.0%      0.0%      0.0%
 flops total                         2.027221E+12     100.0%      0.0%      0.0%
 flops max/rank                     32.044423E+09     100.0%      0.0%      0.0%
 matmuls inhomo. stacks                         0       0.0%      0.0%      0.0%
 matmuls total                           54469208     100.0%      0.0%      0.0%
 number of processed stacks               1108800     100.0%      0.0%      0.0%
 average stack size                                    49.1       0.0       0.0
 marketing flops                     2.275067E+12
 -------------------------------------------------------------------------------
 # multiplications                           1505
 max memory usage/rank             275.243008E+06
 # max total images/rank                        1
 # max 3D layers                                1
 # MPI messages exchanged                 1348480
 MPI messages size (bytes):
  total size                       232.050803E+09
  min size                           0.000000E+00
  max size                           1.663488E+06
  average size                     172.083234E+03
 MPI breakdown and total messages size (bytes):
             size <=      128                2576                        0
       128 < size <=     8192              689136               5623392880
      8192 < size <=    32768                   0                        0
     32768 < size <=   131072              558656              64838002432
    131072 < size <=  4194304               98112             161589156400
   4194304 < size <= 16777216                   0                        0
  16777216 < size                               0                        0
 -------------------------------------------------------------------------------
 
 MEMORY| Estimated peak process memory [MiB]                                 264

 -------------------------------------------------------------------------------
 -                                                                             -
 -                         MESSAGE PASSING PERFORMANCE                         -
 -                                                                             -
 -------------------------------------------------------------------------------

 ROUTINE             CALLS      AVE VOLUME [Bytes]
 MP_Group               95
 MP_Bcast             5497                 176981.
 MP_Allreduce        21969                    314.
 MP_Sync                72
 MP_Alltoall          8506                1198629.
 MP_ISendRecv        17388                  47520.
 MP_Wait            144990
 MP_comm_split          68
 MP_ISend            54246                  99311.
 MP_IRecv            54246                  99522.
 MP_Recv                28                 930304.
 MP_Memory           60444
 -------------------------------------------------------------------------------


 -------------------------------------------------------------------------------
 -                                                                             -
 -                           R E F E R E N C E S                               -
 -                                                                             -
 -------------------------------------------------------------------------------
 
 CP2K version 6.1, the CP2K developers group (2018).
 CP2K is freely available from https://www.cp2k.org/ .

 Lehtola, S; Steigemann, C; Oliveira, MJT; Marques, MAL. 
 SoftwareX, 7, 1-5 (2018). 
 Recent developments in libxc - A comprehensive library of functionals
 for density functional theory.
 http://dx.doi.org/10.1016/j.softx.2017.11.002


 Schuett, Ole; Messmer, Peter; Hutter, Juerg; VandeVondele, Joost. 
 Electronic Structure Calculations on Graphics Processing Units, John Wiley & Sons, Ltd, 173-190 (2016). 
 GPU-Accelerated Sparse Matrix-Matrix Multiplication for Linear Scaling Density Functional Theory.
 http://dx.doi.org/10.1002/9781118670712.ch8


 Borstnik, U; VandeVondele, J; Weber, V; Hutter, J. 
 PARALLEL COMPUTING, 40 (5-6), 47-58 (2014). 
 Sparse matrix multiplication: The distributed block-compressed sparse
 row library.
 http://dx.doi.org/10.1016/j.parco.2014.03.012


 Hutter, J; Iannuzzi, M; Schiffmann, F; VandeVondele, J. 
 WILEY INTERDISCIPLINARY REVIEWS-COMPUTATIONAL MOLECULAR SCIENCE, 4 (1), 15-25 (2014). 
 CP2K: atomistic simulations of condensed matter systems.
 http://dx.doi.org/10.1002/wcms.1159


 Sabatini, R; Gorni, T; de Gironcoli, S. 
 Phys. Rev. B, 87 (4), 041108(R) (2013). 
 Nonlocal van der Waals density functional made simple and efficient.
 http://dx.doi.org/10.1103/PhysRevB.87.041108


 Marques, MAL; Oliveira, MJT; Burnus, T. 
 COMPUTER PHYSICS COMMUNICATIONS, 183 (10), 2272-2281 (2012). 
 LIBXC: A library of exchange and correlation functionals for density
 functional theory.
 http://dx.doi.org/10.1016/j.cpc.2012.05.007


 Roman-Perez, G; Soler, JM. 
 Phys. Rev. Lett., 103 (9), 096102 (2009). 
 Efficient Implementation of a van der Waals Density Functional:
 Application to Double-Wall Carbon Nanotubes.
 http://dx.doi.org/10.1103/PhysRevLett.103.096102


 VandeVondele, J; Hutter, J. 
 JOURNAL OF CHEMICAL PHYSICS, 127 (11), 114105 (2007). 
 Gaussian basis sets for accurate calculations on molecular systems in
 gas and condensed phases.
 http://dx.doi.org/10.1063/1.2770708


 Krack, M. 
 THEORETICAL CHEMISTRY ACCOUNTS, 114 (1-3), 145-152 (2005). 
 Pseudopotentials for H to Kr optimized for gradient-corrected
 exchange-correlation functionals.
 http://dx.doi.org/10.1007/s00214-005-0655-y


 VandeVondele, J; Krack, M; Mohamed, F; Parrinello, M; Chassaing, T;
 Hutter, J. COMPUTER PHYSICS COMMUNICATIONS, 167 (2), 103-128 (2005). 
 QUICKSTEP: Fast and accurate density functional calculations using a
 mixed Gaussian and plane waves approach.
 http://dx.doi.org/10.1016/j.cpc.2004.12.014


 Frigo, M; Johnson, SG. 
 PROCEEDINGS OF THE IEEE, 93 (2), 216-231 (2005). 
 The design and implementation of FFTW3.
 http://dx.doi.org/10.1109/JPROC.2004.840301


 VandeVondele, J; Hutter, J. 
 JOURNAL OF CHEMICAL PHYSICS, 118 (10), 4365-4369 (2003). 
 An efficient orbital transformation method for electronic structure
 calculations.
 http://dx.doi.org/10.1063/1.1543154


 Hartwigsen, C; Goedecker, S; Hutter, J. 
 PHYSICAL REVIEW B, 58 (7), 3641-3662 (1998). 
 Relativistic separable dual-space Gaussian pseudopotentials from H to Rn.
 http://dx.doi.org/10.1103/PhysRevB.58.3641


 Lippert, G; Hutter, J; Parrinello, M. 
 MOLECULAR PHYSICS, 92 (3), 477-487 (1997). 
 A hybrid Gaussian and plane wave density functional scheme.
 http://dx.doi.org/10.1080/002689797170220


 Goedecker, S; Teter, M; Hutter, J. 
 PHYSICAL REVIEW B, 54 (3), 1703-1710 (1996). 
 Separable dual-space Gaussian pseudopotentials.
 http://dx.doi.org/10.1103/PhysRevB.54.1703


 -------------------------------------------------------------------------------
 -                                                                             -
 -                                T I M I N G                                  -
 -                                                                             -
 -------------------------------------------------------------------------------
 SUBROUTINE                       CALLS  ASD         SELF TIME        TOTAL TIME
                                MAXIMUM       AVERAGE  MAXIMUM  AVERAGE  MAXIMUM
 CP2K                                 1  1.0    0.046    0.052  269.363  269.363
 qs_energies                          1  2.0    0.000    0.000  268.558  268.558
 scf_env_do_scf                       1  3.0    0.000    0.000  266.384  266.384
 scf_env_do_scf_inner_loop           34  4.0    0.002    0.003  261.680  261.691
 dbcsr_multiply_generic            1505 10.1    0.090    0.092  179.430  179.957
 qs_scf_new_mos                      34  5.0    0.000    0.000  171.923  171.972
 qs_scf_loop_do_ot                   34  6.0    0.000    0.000  171.923  171.971
 ot_scf_mini                         34  7.0    0.002    0.002  162.897  162.930
 ot_mini                             34  8.0    0.000    0.000  112.034  112.094
 qs_ot_get_derivative                68  9.0    0.001    0.001  101.156  101.273
 multiply_cannon                   1505 11.1    0.227    0.232   89.903   91.370
 mp_deallocate_d                  17400 14.3   84.452   87.652   84.452   87.652
 qs_ot_get_derivative_diag           66 10.0    0.002    0.002   76.558   76.679
 dbcsr_destroy                    17112 11.8    0.057    0.058   68.825   71.555
 qs_ks_update_qs_env                 35  5.0    0.000    0.000   67.651   67.692
 rebuild_ks_matrix                   34  6.0    0.000    0.000   67.587   67.628
 qs_ks_build_kohn_sham_matrix        34  7.0    0.005    0.006   67.587   67.628
 make_m2s                          3010 11.1    0.094    0.099   65.726   66.438
 mp_deallocate_i                  12824 14.2   60.383   62.353   60.383   62.353
 dbcsr_data_release              101588 13.7    0.249    0.278   54.263   56.433
 make_images                       3010 12.1    0.124    0.127   39.984   40.299
 pw_transfer                       3411  9.9    0.160    0.195   36.509   37.731
 fft_wrap_pw1pw2                   3037 10.9    0.019    0.023   36.128   37.342
 qs_vxc_create                       34  8.0    0.002    0.004   36.097   36.175
 setup_buffer_matrices             3010 12.1    0.040    0.042   30.717   32.018
 fft3d_ps                          3037 12.9   10.140   11.178   30.405   31.913
 dbcsr_create_new                 17739 12.5    0.091    0.094   29.080   30.096
 dbcsr_make_index_exist           17739 13.5    0.043    0.044   28.538   29.547
 fft_wrap_pw1pw2_400                753 11.9    2.084    2.530   27.949   28.604
 qs_ot_get_p                         70  7.9    0.001    0.001   26.687   26.825
 dbcsr_make_images_dense           2700 12.3    0.038    0.041   25.606   26.129
 xc_vxc_pw_create                    34  9.0    0.389    0.479   25.422   25.529
 qs_rho_update_rho                   35  5.0    0.000    0.000   24.759   24.850
 calculate_rho_elec                  70  6.0   11.855   11.998   24.759   24.849
 sum_up_and_integrate                34  8.0    0.138    0.173   21.791   21.891
 integrate_v_rspace                  68  9.0   10.946   11.240   21.653   21.773
 mp_alltoall_z22v                  3037 14.9   18.044   20.728   18.044   20.728
 dbcsr_special_finalize            3010 13.1    0.012    0.013   16.294   16.742
 quick_finalize                    3373 13.9    0.018    0.020   16.275   16.724
 qs_ot_p2m_diag                      68  9.0    0.009    0.010   16.504   16.686
 qs_ot_get_orbitals                  68  8.0    0.000    0.000   15.526   15.614
 buffer_matrices_ensure_size       3010 12.1    0.171    0.196   14.155   14.604
 xc_rho_set_and_dset_create          34 10.0    0.223    0.254   13.424   14.342
 mp_waitall_1                    138896 13.3   12.311   14.321   12.311   14.321
 dbcsr_switch_data_area            9763 13.8    0.012    0.012   13.569   13.908
 yz_to_x                           1299 13.7    0.837    0.946   10.066   11.964
 rs_pw_transfer                     553  9.5    0.005    0.006   11.423   11.680
 density_rs2pw                       70  7.0    0.004    0.005   11.000   11.324
 calculate_dispersion_nonloc         34  9.0    0.967    1.192   10.672   10.777
 x_to_yz                           1600 14.1    1.273    1.572   10.082   10.636
 ot_diis_step                        34  9.0    0.003    0.003   10.497   10.497
 apply_preconditioner_dbcsr          70 10.0    0.000    0.000   10.333   10.435
 apply_single                        70 11.0    0.000    0.000   10.332   10.435
 potential_pw2rs                     68 10.0    0.017    0.020    9.302    9.449
 calculate_dm_sparse                 70  7.0    0.000    0.001    9.309    9.362
 make_images_sizes                 3010 13.1    0.005    0.005    7.181    8.363
 mp_alltoall_i44                   3010 14.1    7.177    8.358    7.177    8.358
 multiply_cannon_metrocomm1       12040 12.1    0.045    0.048    6.257    8.348
 mp_sum_l                          7254 11.2    5.913    7.848    5.913    7.848
 fft_wrap_pw1pw2_100               1870 12.0    0.340    0.470    6.861    7.424
 xc_functional_eval                  68 11.0    0.000    0.001    4.884    5.817
 libxc_lsd_eval                      68 12.0    4.883    5.816    4.884    5.816
 mp_allgather_i34                  1505 12.1    3.857    5.402    3.857    5.402
 -------------------------------------------------------------------------------

 The number of warnings for this run is : 1
 
 -------------------------------------------------------------------------------
  **** **** ******  **  PROGRAM ENDED AT                 2024-03-14 22:47:05.822
 ***** ** ***  *** **   PROGRAM RAN ON                                      tc16
 **    ****   ******    PROGRAM RAN BY                                  fambrosi
 ***** **    ** ** **   PROGRAM PROCESS ID                                  4664
  **** **  *******  **  PROGRAM STOPPED IN          /scratch/fambrosi.55022.tccw
