 DBCSR| Multiplication driver                                               BLAS
 DBCSR| Multrec recursion limit                                              512
 DBCSR| Multiplication stack size                                           1000
 DBCSR| Maximum elements for images                                    UNLIMITED
 DBCSR| Multiplicative factor virtual images                                   1
 DBCSR| Multiplication size stacks                                             3
 DBCSR| Number of 3D layers                                               SINGLE
 DBCSR| Use MPI memory allocation                                              T
 DBCSR| Use RMA algorithm                                                      F
 DBCSR| Use Communication thread                                               T
 DBCSR| Communication thread load                                             87


  **** **** ******  **  PROGRAM STARTED AT               2024-03-16 00:22:42.436
 ***** ** ***  *** **   PROGRAM STARTED ON                                  tc22
 **    ****   ******    PROGRAM STARTED BY                              fambrosi
 ***** **    ** ** **   PROGRAM PROCESS ID                                 30844
  **** **  *******  **  PROGRAM STARTED IN          /scratch/fambrosi.55107.tccw

 CP2K| version string:                                          CP2K version 6.1
 CP2K| source code revision number:                                    svn:18464
 CP2K| cp2kflags: libint fftw3 libxc parallel mpi3 scalapack has_no_shared_glibc
 CP2K|             libderiv_max_am1=5 libint_max_am=6 max_contr=4 mkl
 CP2K| is freely available from                            https://www.cp2k.org/
 CP2K| Program compiled at                         Mon Jun 25 12:26:44 CEST 2018
 CP2K| Program compiled on                                                  tccw
 CP2K| Program compiled for                     Linux-x86-64-intel.MPI-OPENMP.O2
 CP2K| Data directory path                           /home/edoardo/cp2k-6.1/data
 CP2K| Input file name        /home/fambrosi/hydroxyl/test-koopman/radical/koop1
 
 GLOBAL| Force Environment number                                              1
 GLOBAL| Basis set file name               /usr/local/cp2k-6.1/data/BASIS_MOLOPT
 GLOBAL| Potential file name             /usr/local/cp2k-6.1/data/GTH_POTENTIALS
 GLOBAL| MM Potential file name                                     MM_POTENTIAL
 GLOBAL| Coordinate file name                                      __STD_INPUT__
 GLOBAL| Method name                                                        CP2K
 GLOBAL| Project name                                               water+I-.dyn
 GLOBAL| Preferred FFT library                                             FFTW3
 GLOBAL| Preferred diagonalization lib.                                       SL
 GLOBAL| Run type                                                         ENERGY
 GLOBAL| All-to-all communication in single precision                          F
 GLOBAL| FFTs using library dependent lengths                                  T
 GLOBAL| Global print level                                                  LOW
 GLOBAL| Total number of message passing processes                            64
 GLOBAL| Number of threads for this process                                    1
 GLOBAL| This output is from process                                           0
 GLOBAL| CPU model name :  Intel(R) Xeon(R) CPU E5-2683 v4 @ 2.10GHz

 MEMORY| system memory details [Kb]
 MEMORY|                        rank 0           min           max       average
 MEMORY| MemTotal            264564496     264564492     264564496     264564494
 MEMORY| MemFree             150521876     150521876     227642076     189081976
 MEMORY| Buffers                197784        197784        223844        210814
 MEMORY| Cached              107274288      32551652     107274288      69912970
 MEMORY| Slab                  2989116        568460       2989116       1778788
 MEMORY| SReclaimable          2909408        494268       2909408       1701838
 MEMORY| MemLikelyFree       260903356     260903356     260911840     260907598

 
 GENERATE|  Preliminary Number of Bonds generated:                             0
 GENERATE|  Achieved consistency in connectivity generation.

 *******************************************************************************
 *******************************************************************************
 **                                                                           **
 **     #####                         ##              ##                      **
 **    ##   ##            ##          ##              ##                      **
 **   ##     ##                       ##            ######                    **
 **   ##     ##  ##   ##  ##   #####  ##  ##   ####   ##    #####    #####    **
 **   ##     ##  ##   ##  ##  ##      ## ##   ##      ##   ##   ##  ##   ##   **
 **   ##  ## ##  ##   ##  ##  ##      ####     ###    ##   ######   ######    **
 **    ##  ###   ##   ##  ##  ##      ## ##      ##   ##   ##       ##        **
 **     #######   #####   ##   #####  ##  ##  ####    ##    #####   ##        **
 **           ##                                                    ##        **
 **                                                                           **
 **                                                ... make the atoms dance   **
 **                                                                           **
 **            Copyright (C) by CP2K developers group (2000 - 2018)           **
 **                                                                           **
 *******************************************************************************


 TOTAL NUMBERS AND MAXIMUM NUMBERS

  Total number of            - Atomic kinds:                                   2
                             - Atoms:                                        191
                             - Shell sets:                                  1146
                             - Shells:                                      1338
                             - Primitive Cartesian functions:               1528
                             - Cartesian basis functions:                   4081
                             - Spherical basis functions:                   3634

  Maximum angular momentum of- Orbital basis functions:                        3
                             - Local part of the GTH pseudopotential:          2
                             - Non-local part of the GTH pseudopotential:      0

  AUX_FIT ADMM-Basis: 
  Total number of            - Shell sets:                                   510
                             - Shells:                                       510
                             - Primitive Cartesian functions:                765
                             - Cartesian basis functions:                    766
                             - Spherical basis functions:                    766
                               Maximum angular momentum                        1


 SCF PARAMETERS         Density guess:                                   RESTART
                        --------------------------------------------------------
                        max_scf:                                              50
                        max_scf_history:                                       0
                        max_diis:                                              4
                        --------------------------------------------------------
                        eps_scf:                                        1.00E-05
                        eps_scf_history:                                0.00E+00
                        eps_diis:                                       1.00E-01
                        eps_eigval:                                     1.00E-05
                        --------------------------------------------------------
                        level_shift [a.u.]:                                 0.00
                        --------------------------------------------------------
                        Outer loop SCF in use 
                        No variables optimised in outer loop
                        eps_scf                                         1.00E-05
                        max_scf                                               50
                        No outer loop optimization
                        step_size                                       5.00E-01

 Number of electrons:                                                        512
 Number of occupied orbitals:                                                256
 Number of molecular orbitals:                                               256

 Number of orbital functions:                                               3634
 Number of independent orbital functions:                                   3634

 Extrapolation method: initial_guess
--------------------------------------------------------------------------
MPI_ABORT was invoked on rank 0 in communicator MPI_COMM_WORLD 
with errorcode 1.

NOTE: invoking MPI_ABORT causes Open MPI to kill all MPI processes.
You may or may not see output from other processes, depending on
exactly when Open MPI kills them.
--------------------------------------------------------------------------
 READ RESTART : WARNING : nspin is not equal 

 *******************************************************************************
 *   ___                                                                       *
 *  /   \                                                                      *
 * [ABORT]                                                                     *
 *  \___/                     Reducing nspin is not possible.                  *
 *    |                                                                        *
 *  O/|                                                                        *
 * /| |                                                                        *
 * / \                                                          qs_mo_io.F:720 *
 *******************************************************************************


 ===== Routine Calling Stack ===== 

            6 read_mo_set_from_restart
            5 calculate_first_density_matrix
            4 scf_env_initial_rho_setup
            3 init_scf_run
            2 qs_energies
            1 CP2K
