 DBCSR| Multiplication driver                                               BLAS
 DBCSR| Multrec recursion limit                                              512
 DBCSR| Multiplication stack size                                           1000
 DBCSR| Maximum elements for images                                    UNLIMITED
 DBCSR| Multiplicative factor virtual images                                   1
 DBCSR| Multiplication size stacks                                             3
 DBCSR| Number of 3D layers                                               SINGLE
 DBCSR| Use MPI memory allocation                                              T
 DBCSR| Use RMA algorithm                                                      F
 DBCSR| Use Communication thread                                               T
 DBCSR| Communication thread load                                             87


  **** **** ******  **  PROGRAM STARTED AT               2024-03-15 00:04:33.849
 ***** ** ***  *** **   PROGRAM STARTED ON                                  tc23
 **    ****   ******    PROGRAM STARTED BY                              fambrosi
 ***** **    ** ** **   PROGRAM PROCESS ID                                 20324
  **** **  *******  **  PROGRAM STARTED IN          /scratch/fambrosi.55040.tccw

 CP2K| version string:                                          CP2K version 6.1
 CP2K| source code revision number:                                    svn:18464
 CP2K| cp2kflags: libint fftw3 libxc parallel mpi3 scalapack has_no_shared_glibc
 CP2K|             libderiv_max_am1=5 libint_max_am=6 max_contr=4 mkl
 CP2K| is freely available from                            https://www.cp2k.org/
 CP2K| Program compiled at                         Mon Jun 25 12:26:44 CEST 2018
 CP2K| Program compiled on                                                  tccw
 CP2K| Program compiled for                     Linux-x86-64-intel.MPI-OPENMP.O2
 CP2K| Data directory path                           /home/edoardo/cp2k-6.1/data
 CP2K| Input file name        /home/fambrosi/hydroxyl/test-koopman/radical/hyb2/
 
 GLOBAL| Force Environment number                                              1
 GLOBAL| Basis set file name               /usr/local/cp2k-6.1/data/BASIS_MOLOPT
 GLOBAL| Potential file name             /usr/local/cp2k-6.1/data/GTH_POTENTIALS
 GLOBAL| MM Potential file name                                     MM_POTENTIAL
 GLOBAL| Coordinate file name                                      __STD_INPUT__
 GLOBAL| Method name                                                        CP2K
 GLOBAL| Project name                                               water+I-.dyn
 GLOBAL| Preferred FFT library                                             FFTW3
 GLOBAL| Preferred diagonalization lib.                                       SL
 GLOBAL| Run type                                                         ENERGY
 GLOBAL| All-to-all communication in single precision                          F
 GLOBAL| FFTs using library dependent lengths                                  T
 GLOBAL| Global print level                                                  LOW
 GLOBAL| Total number of message passing processes                            32
 GLOBAL| Number of threads for this process                                    1
 GLOBAL| This output is from process                                           0
 GLOBAL| CPU model name :  Intel(R) Xeon(R) CPU E5-2683 v4 @ 2.10GHz

 MEMORY| system memory details [Kb]
 MEMORY|                        rank 0           min           max       average
 MEMORY| MemTotal            264564380     264564380     264564380     264564380
 MEMORY| MemFree              47793176      47793176      47793176      47793176
 MEMORY| Buffers                190804        190804        190804        190804
 MEMORY| Cached              207673264     207673264     207673264     207673264
 MEMORY| Slab                  5995576       5995576       5995576       5995576
 MEMORY| SReclaimable          5925536       5925536       5925536       5925536
 MEMORY| MemLikelyFree       261582780     261582780     261582780     261582780

 
 GENERATE|  Preliminary Number of Bonds generated:                             0
 GENERATE|  Achieved consistency in connectivity generation.

 *******************************************************************************
 *******************************************************************************
 **                                                                           **
 **     #####                         ##              ##                      **
 **    ##   ##            ##          ##              ##                      **
 **   ##     ##                       ##            ######                    **
 **   ##     ##  ##   ##  ##   #####  ##  ##   ####   ##    #####    #####    **
 **   ##     ##  ##   ##  ##  ##      ## ##   ##      ##   ##   ##  ##   ##   **
 **   ##  ## ##  ##   ##  ##  ##      ####     ###    ##   ######   ######    **
 **    ##  ###   ##   ##  ##  ##      ## ##      ##   ##   ##       ##        **
 **     #######   #####   ##   #####  ##  ##  ####    ##    #####   ##        **
 **           ##                                                    ##        **
 **                                                                           **
 **                                                ... make the atoms dance   **
 **                                                                           **
 **            Copyright (C) by CP2K developers group (2000 - 2018)           **
 **                                                                           **
 *******************************************************************************


 TOTAL NUMBERS AND MAXIMUM NUMBERS

  Total number of            - Atomic kinds:                                   2
                             - Atoms:                                        191
                             - Shell sets:                                  1146
                             - Shells:                                      1338
                             - Primitive Cartesian functions:               1528
                             - Cartesian basis functions:                   4081
                             - Spherical basis functions:                   3634

  Maximum angular momentum of- Orbital basis functions:                        3
                             - Local part of the GTH pseudopotential:          2
                             - Non-local part of the GTH pseudopotential:      0

  AUX_FIT ADMM-Basis: 
  Total number of            - Shell sets:                                   510
                             - Shells:                                       510
                             - Primitive Cartesian functions:                765
                             - Cartesian basis functions:                    766
                             - Spherical basis functions:                    766
                               Maximum angular momentum                        1


 SCF PARAMETERS         Density guess:                                   RESTART
                        --------------------------------------------------------
                        max_scf:                                              50
                        max_scf_history:                                       0
                        max_diis:                                              4
                        --------------------------------------------------------
                        eps_scf:                                        1.00E-05
                        eps_scf_history:                                0.00E+00
                        eps_diis:                                       1.00E-01
                        eps_eigval:                                     1.00E-05
                        --------------------------------------------------------
                        level_shift [a.u.]:                                 0.00
                        --------------------------------------------------------
                        Outer loop SCF in use 
                        No variables optimised in outer loop
                        eps_scf                                         1.00E-05
                        max_scf                                               50
                        No outer loop optimization
                        step_size                                       5.00E-01

 Spin 1

 Number of electrons:                                                        256
 Number of occupied orbitals:                                                256
 Number of molecular orbitals:                                               256

 Spin 2

 Number of electrons:                                                        255
 Number of occupied orbitals:                                                255
 Number of molecular orbitals:                                               255

 Number of orbital functions:                                               3634
 Number of independent orbital functions:                                   3634

 Extrapolation method: initial_guess


 SCF WAVEFUNCTION OPTIMIZATION

  ----------------------------------- OT ---------------------------------------
  Minimizer      : CG                  : conjugate gradient
  Preconditioner : FULL_SINGLE_INVERSE : inversion of 
                                         H + eS - 2*(Sc)(c^T*H*c+const)(Sc)^T
  Precond_solver : DEFAULT
  Line search    : 2PNT                : 2 energies, one gradient
  stepsize       :    0.08000000                  energy_gap     :    0.08000000
  eps_taylor     :   0.10000E-15                  max_taylor     :             4
  ----------------------------------- OT ---------------------------------------

  Step     Update method      Time    Convergence         Total energy    Change
  ------------------------------------------------------------------------------

 *** WARNING in hfx_energy_potential.F:605 :: The Kohn Sham matrix is not  ***
 *** 100% occupied. This may result in incorrect Hartree-Fock results. Try ***
 *** to decrease EPS_PGF_ORB and EPS_FILTER_MATRIX in the QS section. For  ***
 *** more information see FAQ: https://www.cp2k.org/faq:hfx_eps_warning    ***

     1 OT CG       0.80E-01   83.9     0.00070795     -1099.5633931542 -1.10E+03
     2 OT LS       0.32E+00   15.5                    -1099.6295024910
     3 OT CG       0.32E+00   24.1     0.00028144     -1099.7277523926 -1.64E-01
     4 OT LS       0.15E+00   15.4                    -1099.7248292230
     5 OT CG       0.15E+00   25.2     0.00023195     -1099.7393896287 -1.16E-02
     6 OT LS       0.70E-01   15.3                    -1099.7382765225
     7 OT CG       0.70E-01   24.7     0.00011220     -1099.7429400824 -3.55E-03
     8 OT LS       0.16E+00   15.5                    -1099.7442230013
     9 OT CG       0.16E+00   24.4     0.00006520     -1099.7448055491 -1.87E-03
    10 OT LS       0.79E-01   15.5                    -1099.7447918821
    11 OT CG       0.79E-01   24.6     0.00004016     -1099.7451167896 -3.11E-04
    12 OT LS       0.99E-01   15.3                    -1099.7452591425
    13 OT CG       0.99E-01   24.9     0.00001937     -1099.7452655581 -1.49E-04
    14 OT LS       0.10E+00   15.5                    -1099.7453017991
    15 OT CG       0.10E+00   24.6     0.00001463     -1099.7453018806 -3.63E-05
    16 OT LS       0.14E+00   15.5                    -1099.7453277466
    17 OT CG       0.14E+00   24.6     0.00001240     -1099.7453294298 -2.75E-05
    18 OT LS       0.20E+00   15.2                    -1099.7453552655
    19 OT CG       0.20E+00   25.2     0.00001765     -1099.7453579152 -2.85E-05
    20 OT LS       0.15E+00   15.4                    -1099.7453986275
    21 OT CG       0.15E+00   24.4     0.00001756     -1099.7454025016 -4.46E-05
    22 OT LS       0.31E+00   15.8                    -1099.7454690905
    23 OT CG       0.31E+00   25.1     0.00002493     -1099.7454920380 -8.95E-05
    24 OT LS       0.16E+00   15.3                    -1099.7454882567
    25 OT CG       0.16E+00   25.0     0.00003165     -1099.7455820196 -9.00E-05
    26 OT LS       0.15E+00   15.4                    -1099.7457268928
    27 OT CG       0.15E+00   24.8     0.00002253     -1099.7457269240 -1.45E-04
    28 OT LS       0.19E+00   15.6                    -1099.7458126448
    29 OT CG       0.19E+00   24.4     0.00001864     -1099.7458161195 -8.92E-05
    30 OT LS       0.90E-01   15.4                    -1099.7458075530
    31 OT CG       0.90E-01   24.6     0.00001422     -1099.7458450964 -2.90E-05
    32 OT LS       0.16E+00   15.3                    -1099.7458690798
    33 OT CG       0.16E+00   25.2     0.00000819     -1099.7458742815 -2.92E-05

  *** SCF run converged in    33 steps ***


  Electronic density on regular grids:       -510.9999999533        0.0000000467
  Core density on regular grids:              510.9999999998       -0.0000000002
  Total charge density on r-space grids:        0.0000000465
  Total charge density g-space grids:           0.0000000465

  Overlap energy of the core charge distribution:               0.00000304316890
  Self energy of the core charge distribution:              -2836.80744583234036
  Core Hamiltonian energy:                                    826.94909598487345
  Hartree energy:                                            1179.07660840400899
  Exchange-correlation energy:                               -170.70396821682303
  Hartree-Fock Exchange energy:                              -100.40519797788814
  Dispersion energy:                                            2.14503031348469

  Total energy:                                             -1099.74587428151540

  outer SCF iter =    1 RMS gradient =   0.82E-05 energy =      -1099.7458742815
  outer SCF loop converged in   1 iterations or   33 steps


  Integrated absolute spin density  :                               1.0744842078
  Ideal and single determinant S**2 :                    0.750000       0.753064

 The sum of alpha and beta density is written in cube file format to the file:

 water+I-.dyn-ELECTRON_DENSITY-1_0.cube

 The spin density is written in cube file format to the file:

 water+I-.dyn-SPIN_DENSITY-1_0.cube
  
  Eigenvalues of the occupied subspace spin            1
 ---------------------------------------------
      -1.01918885     -1.01792983     -1.01337490     -1.01244249
      -1.01131819     -1.01066649     -1.01036459     -1.00765365
      -1.00664833     -1.00630919     -1.00365962     -1.00262671
      -1.00167482     -1.00105150     -0.99936269     -0.99883286
      -0.99758185     -0.99568411     -0.99514002     -0.99422913
      -0.99299966     -0.99197297     -0.99148498     -0.99072817
      -0.99048298     -0.98947640     -0.98845505     -0.98798316
      -0.98738131     -0.98666651     -0.98576322     -0.98505393
      -0.98415104     -0.98354779     -0.98202635     -0.98137212
      -0.98004773     -0.97937399     -0.97848359     -0.97549781
      -0.97361034     -0.97239173     -0.97132196     -0.97101306
      -0.96955181     -0.96853266     -0.96746952     -0.96714896
      -0.96542783     -0.96494732     -0.96360292     -0.96250272
      -0.96173655     -0.95989997     -0.95917973     -0.95827387
      -0.95589786     -0.95476084     -0.95240325     -0.95173374
      -0.94688529     -0.94650607     -0.94033316     -0.93801590
      -0.50125109     -0.49684199     -0.49573607     -0.49195924
      -0.48731295     -0.48715682     -0.48527992     -0.48363808
      -0.48333984     -0.48204835     -0.48147375     -0.48061362
      -0.48024372     -0.47923894     -0.47888615     -0.47674033
      -0.47623341     -0.47526066     -0.47423033     -0.47382538
      -0.47344472     -0.47248984     -0.47194133     -0.47082284
      -0.47049951     -0.47001036     -0.46951714     -0.46870432
      -0.46817457     -0.46751203     -0.46650661     -0.46635666
      -0.46527738     -0.46313700     -0.46232632     -0.46177195
      -0.46072527     -0.46019963     -0.45990667     -0.45822131
      -0.45715741     -0.45639361     -0.45478653     -0.45457319
      -0.45353305     -0.45239902     -0.45210396     -0.45163308
      -0.45112835     -0.45001246     -0.44983670     -0.44954701
      -0.44822532     -0.44575140     -0.44401510     -0.44301067
      -0.44255300     -0.43943805     -0.43920315     -0.43785965
      -0.43423865     -0.43106769     -0.42834923     -0.41919986
      -0.39417221     -0.39343064     -0.38790194     -0.38490993
      -0.38148020     -0.37691531     -0.37400146     -0.37277126
      -0.37126490     -0.37069909     -0.36914216     -0.36645170
      -0.36489494     -0.36169572     -0.36034814     -0.35876498
      -0.35644719     -0.35400531     -0.35390121     -0.35073793
      -0.34881377     -0.34714796     -0.34620604     -0.34521645
      -0.34109430     -0.33873091     -0.33729344     -0.33717106
      -0.33552739     -0.33415089     -0.33362347     -0.32914784
      -0.32799908     -0.32780123     -0.32725386     -0.32474679
      -0.32285055     -0.32134800     -0.32078315     -0.32010877
      -0.31957535     -0.31660573     -0.31561579     -0.31288658
      -0.31193029     -0.31082229     -0.30986202     -0.30865672
      -0.30334604     -0.30138293     -0.30104595     -0.29961931
      -0.29731872     -0.29628368     -0.29563497     -0.29358664
      -0.29265447     -0.29185810     -0.28940561     -0.28774382
      -0.28573656     -0.28387009     -0.27984758     -0.27639688
      -0.27252929     -0.27122588     -0.27049104     -0.26978146
      -0.26839330     -0.26684934     -0.26670891     -0.26649397
      -0.26458560     -0.26391233     -0.26333421     -0.26268559
      -0.26198363     -0.26080990     -0.26048422     -0.25957896
      -0.25909454     -0.25861888     -0.25790724     -0.25781999
      -0.25671953     -0.25596550     -0.25524671     -0.25459597
      -0.25426136     -0.25316159     -0.25264779     -0.25213835
      -0.25156936     -0.25089266     -0.25059244     -0.24954261
      -0.24915200     -0.24836748     -0.24811590     -0.24746780
      -0.24592037     -0.24537884     -0.24463754     -0.24427048
      -0.24399991     -0.24329270     -0.24280847     -0.24085165
      -0.23987096     -0.23887057     -0.23871510     -0.23707233
      -0.23638298     -0.23467049     -0.23419122     -0.23219122
      -0.23153424     -0.23011951     -0.22996932     -0.22915433
      -0.22905821     -0.22707951     -0.22676478     -0.22532829
      -0.22463083     -0.22354771     -0.22110814     -0.21714868
 Fermi Energy [eV] :   -5.908916
  
  Eigenvalues of the occupied subspace spin            2
 ---------------------------------------------
      -1.01913994     -1.01791127     -1.01334983     -1.01184118
      -1.01094953     -1.01046462     -1.00866353     -1.00764444
      -1.00660769     -1.00535113     -1.00355859     -1.00212312
      -1.00151701     -1.00103142     -0.99935176     -0.99881517
      -0.99755803     -0.99558231     -0.99512023     -0.99420504
      -0.99289189     -0.99181026     -0.99123731     -0.99047859
      -0.98951671     -0.98893584     -0.98842794     -0.98775227
      -0.98718293     -0.98605764     -0.98511452     -0.98415089
      -0.98384852     -0.98263840     -0.98190705     -0.98066421
      -0.97941967     -0.97852015     -0.97548806     -0.97381405
      -0.97243091     -0.97132192     -0.97100590     -0.96955017
      -0.96853450     -0.96747883     -0.96713971     -0.96544709
      -0.96493685     -0.96359392     -0.96249268     -0.96172478
      -0.95989399     -0.95925324     -0.95826273     -0.95587978
      -0.95477270     -0.95239048     -0.95172206     -0.94687172
      -0.94647599     -0.94027156     -0.93801541     -0.89295628
      -0.50124842     -0.49683907     -0.49573192     -0.49195729
      -0.48731214     -0.48713666     -0.48526879     -0.48350750
      -0.48323869     -0.48203738     -0.48133324     -0.48059764
      -0.48021239     -0.47920647     -0.47888078     -0.47671539
      -0.47621165     -0.47525630     -0.47420424     -0.47379862
      -0.47343755     -0.47246656     -0.47185650     -0.47080772
      -0.47022633     -0.46997160     -0.46950770     -0.46857186
      -0.46812400     -0.46726257     -0.46647939     -0.46582358
      -0.46498888     -0.46311099     -0.46229241     -0.46176616
      -0.46065072     -0.46016177     -0.45990018     -0.45821683
      -0.45715423     -0.45638939     -0.45475744     -0.45452657
      -0.45353182     -0.45235021     -0.45210024     -0.45138209
      -0.45110512     -0.44985709     -0.44961401     -0.44940253
      -0.44813515     -0.44562524     -0.44400700     -0.44296098
      -0.44171137     -0.43927701     -0.43872901     -0.43780553
      -0.43412708     -0.43106318     -0.42833240     -0.40392638
      -0.39411560     -0.39300726     -0.38759930     -0.38461016
      -0.38126353     -0.37680876     -0.37388048     -0.37232037
      -0.37061851     -0.36911850     -0.36780806     -0.36608466
      -0.36481177     -0.36078020     -0.35894944     -0.35653213
      -0.35405559     -0.35390910     -0.35067409     -0.34807011
      -0.34753835     -0.34620202     -0.34519430     -0.34117314
      -0.33882446     -0.33736919     -0.33706512     -0.33550084
      -0.33417702     -0.33319644     -0.32898687     -0.32791368
      -0.32770538     -0.32721840     -0.32476335     -0.32274803
      -0.32141074     -0.32076641     -0.31978850     -0.31943687
      -0.31655044     -0.31559586     -0.31267751     -0.31187524
      -0.31069146     -0.30982414     -0.30858968     -0.30330430
      -0.30129803     -0.30095695     -0.29949399     -0.29727724
      -0.29607659     -0.29540171     -0.29357183     -0.29240652
      -0.29180030     -0.28934327     -0.28772330     -0.28564216
      -0.28368470     -0.27663782     -0.27253484     -0.27130929
      -0.27072795     -0.26976319     -0.26846343     -0.26681811
      -0.26659505     -0.26629798     -0.26452555     -0.26382635
      -0.26333326     -0.26255594     -0.26229418     -0.26151959
      -0.26053280     -0.25958288     -0.25907880     -0.25860532
      -0.25788777     -0.25766758     -0.25669229     -0.25642576
      -0.25521307     -0.25458033     -0.25430728     -0.25313763
      -0.25266494     -0.25211974     -0.25180771     -0.25138709
      -0.25090214     -0.25056158     -0.24915186     -0.24889666
      -0.24833437     -0.24786301     -0.24739396     -0.24576228
      -0.24499603     -0.24457855     -0.24402294     -0.24330786
      -0.24287662     -0.24219741     -0.24045651     -0.23940697
      -0.23883419     -0.23863747     -0.23685389     -0.23631423
      -0.23463348     -0.23409055     -0.23214984     -0.23139517
      -0.23007871     -0.22994418     -0.22908371     -0.22901762
      -0.22692900     -0.22667520     -0.22529151     -0.22459719
      -0.22350599     -0.22105228     -0.21704981
 Fermi Energy [eV] :   -5.906226
  
  Lowest Eigenvalues of the unoccupied subspace spin            1
 -----------------------------------------------------
  Reached convergence in           53  iterations 
       0.11450526
  
  Lowest Eigenvalues of the unoccupied subspace spin            2
 -----------------------------------------------------
  Reached convergence in           75  iterations 
       0.01970359
  
 HOMO - LUMO gap [eV] :    9.024763
 HOMO - LUMO gap [eV] :    6.442387

 ENERGY| Total FORCE_EVAL ( QS ) energy (a.u.):            -1099.745874281515398


 -------------------------------------------------------------------------------
 -                                                                             -
 -                                DBCSR STATISTICS                             -
 -                                                                             -
 -------------------------------------------------------------------------------
 COUNTER                                    TOTAL       BLAS       SMM       ACC
 flops    63 x     1 x    31                 7812     100.0%      0.0%      0.0%
 flops    64 x     1 x    31                23808     100.0%      0.0%      0.0%
 flops    63 x     1 x    32                56448     100.0%      0.0%      0.0%
 flops   898 x     1 x    31               111352     100.0%      0.0%      0.0%
 flops    63 x     1 x   442               111384     100.0%      0.0%      0.0%
 flops    65 x     1 x    33               115830     100.0%      0.0%      0.0%
 flops     1 x     1 x   442               221000     100.0%      0.0%      0.0%
 flops   912 x     1 x    31               339264     100.0%      0.0%      0.0%
 flops    64 x     1 x    33               342144     100.0%      0.0%      0.0%
 flops    65 x     1 x    32               786240     100.0%      0.0%      0.0%
 flops    63 x     1 x   456               804384     100.0%      0.0%      0.0%
 flops    31 x    31 x   442               849524     100.0%      0.0%      0.0%
 flops    65 x     1 x   442              1551420     100.0%      0.0%      0.0%
 flops     1 x     1 x   456              1596000     100.0%      0.0%      0.0%
 flops   898 x     1 x    33              1600236     100.0%      0.0%      0.0%
 flops    32 x    31 x   442              2630784     100.0%      0.0%      0.0%
 flops    31 x    32 x   442              3507712     100.0%      0.0%      0.0%
 flops    65 x    33 x   442              3792360     100.0%      0.0%      0.0%
 flops   912 x     1 x    33              4875552     100.0%      0.0%      0.0%
 flops    31 x    31 x   456              6135024     100.0%      0.0%      0.0%
 flops    14 x    31 x    31              6834632     100.0%      0.0%      0.0%
 flops    29 x    31 x    31              7134464     100.0%      0.0%      0.0%
 flops    64 x     1 x    32              7737344     100.0%      0.0%      0.0%
 flops    64 x    33 x   442             11202048     100.0%      0.0%      0.0%
 flops    65 x     1 x   456             11203920     100.0%      0.0%      0.0%
 flops    64 x     1 x   442             13974272     100.0%      0.0%      0.0%
 flops    32 x    31 x   456             18998784     100.0%      0.0%      0.0%
 flops    14 x    32 x    31             24692864     100.0%      0.0%      0.0%
 flops    14 x    31 x    32             24692864     100.0%      0.0%      0.0%
 flops    63 x    31 x    31             25185888     100.0%      0.0%      0.0%
 flops    31 x    32 x   456             25331712     100.0%      0.0%      0.0%
 flops    65 x    32 x   442             25742080     100.0%      0.0%      0.0%
 flops    29 x    32 x    31             25776128     100.0%      0.0%      0.0%
 flops    29 x    31 x    32             25776128     100.0%      0.0%      0.0%
 flops    65 x    33 x   456             27387360     100.0%      0.0%      0.0%
 flops   898 x     1 x    32             30057856     100.0%      0.0%      0.0%
 flops   898 x     1 x   442             51599080     100.0%      0.0%      0.0%
 flops   898 x    33 x   442             52392912     100.0%      0.0%      0.0%
 flops    32 x    32 x   442             57933824     100.0%      0.0%      0.0%
 flops     2 x     2 x    31             66519552     100.0%      0.0%      0.0%
 flops    64 x    31 x    31             76756992     100.0%      0.0%      0.0%
 flops    64 x    33 x   456             80898048     100.0%      0.0%      0.0%
 flops   912 x     1 x    32             91579392     100.0%      0.0%      0.0%
 flops    64 x     1 x   456            100918272     100.0%      0.0%      0.0%
 flops     8 x     2 x    31            130125600     100.0%      0.0%      0.0%
 flops     2 x     8 x    31            130158336     100.0%      0.0%      0.0%
 flops    63 x    31 x   442            146748420     100.0%      0.0%      0.0%
 flops   912 x     1 x   442            157210560     100.0%      0.0%      0.0%
 flops   912 x    33 x   442            159629184     100.0%      0.0%      0.0%
 flops    63 x    31 x    32            181988352     100.0%      0.0%      0.0%
 flops    63 x    32 x    31            181988352     100.0%      0.0%      0.0%
 flops    65 x    32 x   456            185902080     100.0%      0.0%      0.0%
 flops   898 x    31 x    31            198484940     100.0%      0.0%      0.0%
 flops     8 x     8 x    31            210950784     100.0%      0.0%      0.0%
 flops   898 x     1 x   456            372634080     100.0%      0.0%      0.0%
 flops   898 x    33 x   456            378366912     100.0%      0.0%      0.0%
 flops    32 x    32 x   456            418381824     100.0%      0.0%      0.0%
 flops   898 x    31 x   442            442958256     100.0%      0.0%      0.0%
 flops    64 x    31 x   442            447233280     100.0%      0.0%      0.0%
 flops    14 x    32 x    32            466092032     100.0%      0.0%      0.0%
 flops    29 x    32 x    32            486539264     100.0%      0.0%      0.0%
 flops    64 x    32 x    31            554631168     100.0%      0.0%      0.0%
 flops    64 x    31 x    32            554631168     100.0%      0.0%      0.0%
 flops   912 x    31 x    31            604738080     100.0%      0.0%      0.0%
 flops     2 x     2 x    32           1029980160     100.0%      0.0%      0.0%
 flops    63 x    31 x   456           1059775920     100.0%      0.0%      0.0%
 flops    63 x    32 x   442           1060375680     100.0%      0.0%      0.0%
 flops   912 x     1 x   456           1135330560     100.0%      0.0%      0.0%
 flops   912 x    33 x   456           1152797184     100.0%      0.0%      0.0%
 flops    63 x    32 x    32           1315012608     100.0%      0.0%      0.0%
 flops   912 x    31 x   442           1349592192     100.0%      0.0%      0.0%
 flops   898 x    32 x    31           1434213760     100.0%      0.0%      0.0%
 flops   898 x    31 x    32           1434213760     100.0%      0.0%      0.0%
 flops    14 x     1 x    14           1642955888     100.0%      0.0%      0.0%
 flops    29 x     1 x    14           1724928352     100.0%      0.0%      0.0%
 flops    14 x     1 x    29           1724928352     100.0%      0.0%      0.0%
 flops    29 x     1 x    29           1801516192     100.0%      0.0%      0.0%
 flops     8 x     2 x    32           2014848000     100.0%      0.0%      0.0%
 flops     2 x     8 x    32           2015354880     100.0%      0.0%      0.0%
 flops   898 x    31 x   456           3198920256     100.0%      0.0%      0.0%
 flops    64 x    31 x   456           3229793280     100.0%      0.0%      0.0%
 flops     8 x     8 x    32           3266334720     100.0%      0.0%      0.0%
 flops    14 x    14 x    31           3429731872     100.0%      0.0%      0.0%
 flops    29 x    14 x    31           3571050952     100.0%      0.0%      0.0%
 flops    14 x    29 x    31           3572762648     100.0%      0.0%      0.0%
 flops    29 x    29 x    31           3788846288     100.0%      0.0%      0.0%
 flops   912 x    31 x    32           4369720320     100.0%      0.0%      0.0%
 flops   912 x    32 x    31           4369720320     100.0%      0.0%      0.0%
 flops   898 x    32 x   442           7620787200     100.0%      0.0%      0.0%
 flops    63 x    32 x   456           7657735680     100.0%      0.0%      0.0%
 flops    64 x    32 x   442           8347901952     100.0%      0.0%      0.0%
 flops   912 x    31 x   456           9746376192     100.0%      0.0%      0.0%
 flops    64 x    32 x    32          11054088192     100.0%      0.0%      0.0%
 flops    14 x    31 x    14          11274941552     100.0%      0.0%      0.0%
 flops    29 x    31 x    14          11837485408     100.0%      0.0%      0.0%
 flops    14 x    31 x    29          11837485408     100.0%      0.0%      0.0%
 flops    29 x    31 x    29          12363076768     100.0%      0.0%      0.0%
 flops   912 x    32 x   442          23218790400     100.0%      0.0%      0.0%
 flops   898 x    32 x    32          23899156480     100.0%      0.0%      0.0%
 flops    14 x    14 x    32          53105525760     100.0%      0.0%      0.0%
 flops   898 x    32 x   456          55035187200     100.0%      0.0%      0.0%
 flops    29 x    14 x    32          55293692160     100.0%      0.0%      0.0%
 flops    14 x    29 x    32          55320195840     100.0%      0.0%      0.0%
 flops    29 x    29 x    32          58666007040     100.0%      0.0%      0.0%
 flops    64 x    32 x   456          60286205952     100.0%      0.0%      0.0%
 flops   912 x    32 x    32          72815247360     100.0%      0.0%      0.0%
 flops   912 x    32 x   456         167679590400     100.0%      0.0%      0.0%
 flops    14 x    32 x    14         172974409216     100.0%      0.0%      0.0%
 flops    29 x    32 x    14         181604670464     100.0%      0.0%      0.0%
 flops    14 x    32 x    29         181604670464     100.0%      0.0%      0.0%
 flops    29 x    32 x    29         189668025344     100.0%      0.0%      0.0%
 flops inhomo. stacks                     2806798     100.0%      0.0%      0.0%
 flops total                         1.504936E+12     100.0%      0.0%      0.0%
 flops max/rank                     49.117849E+09     100.0%      0.0%      0.0%
 matmuls inhomo. stacks                      2219     100.0%      0.0%      0.0%
 matmuls total                           62728977     100.0%      0.0%      0.0%
 number of processed stacks                525747     100.0%      0.0%      0.0%
 average stack size                                   119.3       0.0       0.0
 marketing flops                     1.756596E+12
 -------------------------------------------------------------------------------
 # multiplications                           2974
 max memory usage/rank             493.891584E+06
 # max total images/rank                        2
 # max 3D layers                                1
 # MPI messages exchanged                 1998528
 MPI messages size (bytes):
  total size                       414.300963E+09
  min size                           0.000000E+00
  max size                           3.326976E+06
  average size                     207.303062E+03
 MPI breakdown and total messages size (bytes):
             size <=      128             1059016                    97440
       128 < size <=     8192              360024               2640026088
      8192 < size <=    32768              138656               2505419336
     32768 < size <=   131072              194432              21574985600
    131072 < size <=  4194304              246400             387582163360
   4194304 < size <= 16777216                   0                        0
  16777216 < size                               0                        0
 -------------------------------------------------------------------------------

 *** WARNING in dbcsr/mm/dbcsr_mm.F:268 :: Using a non-square number of ***
 *** MPI ranks might lead to poor performance.                          ***
 *** Used ranks: 32                                                     ***
 *** Suggested: 36 64                                                   ***

 -------------------------------------------------------------------------------
 
 MEMORY| Estimated peak process memory [MiB]                                 472

 -------------------------------------------------------------------------------
 -                                                                             -
 -                         MESSAGE PASSING PERFORMANCE                         -
 -                                                                             -
 -------------------------------------------------------------------------------

 ROUTINE             CALLS      AVE VOLUME [Bytes]
 MP_Group              319
 MP_Bcast             2614                 625449.
 MP_Allreduce        19753                    330.
 MP_Sync               486
 MP_Alltoall         16379                1626517.
 MP_ISendRecv        16926                  74721.
 MP_Wait            265584
 MP_comm_split         182
 MP_ISend           148094                 119593.
 MP_IRecv           147598                 120466.
 MP_Recv                28                 930304.
 MP_Memory          172158
 MP_Write_All            6                 614304.
 -------------------------------------------------------------------------------


 -------------------------------------------------------------------------------
 -                                                                             -
 -                           R E F E R E N C E S                               -
 -                                                                             -
 -------------------------------------------------------------------------------
 
 CP2K version 6.1, the CP2K developers group (2018).
 CP2K is freely available from https://www.cp2k.org/ .

 Schuett, Ole; Messmer, Peter; Hutter, Juerg; VandeVondele, Joost. 
 Electronic Structure Calculations on Graphics Processing Units, John Wiley & Sons, Ltd, 173-190 (2016). 
 GPU-Accelerated Sparse Matrix-Matrix Multiplication for Linear Scaling Density Functional Theory.
 http://dx.doi.org/10.1002/9781118670712.ch8


 Borstnik, U; VandeVondele, J; Weber, V; Hutter, J. 
 PARALLEL COMPUTING, 40 (5-6), 47-58 (2014). 
 Sparse matrix multiplication: The distributed block-compressed sparse
 row library.
 http://dx.doi.org/10.1016/j.parco.2014.03.012


 Hutter, J; Iannuzzi, M; Schiffmann, F; VandeVondele, J. 
 WILEY INTERDISCIPLINARY REVIEWS-COMPUTATIONAL MOLECULAR SCIENCE, 4 (1), 15-25 (2014). 
 CP2K: atomistic simulations of condensed matter systems.
 http://dx.doi.org/10.1002/wcms.1159


 Sabatini, R; Gorni, T; de Gironcoli, S. 
 Phys. Rev. B, 87 (4), 041108(R) (2013). 
 Nonlocal van der Waals density functional made simple and efficient.
 http://dx.doi.org/10.1103/PhysRevB.87.041108


 Guidon, M; Hutter, J; VandeVondele, J. 
 JOURNAL OF CHEMICAL THEORY AND COMPUTATION, 6 (8), 2348-2364 (2010). 
 Auxiliary Density Matrix Methods for Hartree-Fock Exchange Calculations.
 http://dx.doi.org/10.1021/ct1002225


 Guidon, M; Hutter, J; VandeVondele, J. 
 JOURNAL OF CHEMICAL THEORY AND COMPUTATION, 5 (11), 3010-3021 (2009). 
 Robust Periodic Hartree-Fock Exchange for Large-Scale Simulations Using
 Gaussian Basis Sets.
 http://dx.doi.org/10.1021/ct900494g


 Roman-Perez, G; Soler, JM. 
 Phys. Rev. Lett., 103 (9), 096102 (2009). 
 Efficient Implementation of a van der Waals Density Functional:
 Application to Double-Wall Carbon Nanotubes.
 http://dx.doi.org/10.1103/PhysRevLett.103.096102


 Guidon, M; Schiffmann, F; Hutter, J; VandeVondele, J. 
 JOURNAL OF CHEMICAL PHYSICS, 128 (21), 214104 (2008). 
 Ab initio molecular dynamics using hybrid density functionals.
 http://dx.doi.org/10.1063/1.2931945


 VandeVondele, J; Hutter, J. 
 JOURNAL OF CHEMICAL PHYSICS, 127 (11), 114105 (2007). 
 Gaussian basis sets for accurate calculations on molecular systems in
 gas and condensed phases.
 http://dx.doi.org/10.1063/1.2770708


 Krack, M. 
 THEORETICAL CHEMISTRY ACCOUNTS, 114 (1-3), 145-152 (2005). 
 Pseudopotentials for H to Kr optimized for gradient-corrected
 exchange-correlation functionals.
 http://dx.doi.org/10.1007/s00214-005-0655-y


 VandeVondele, J; Krack, M; Mohamed, F; Parrinello, M; Chassaing, T;
 Hutter, J. COMPUTER PHYSICS COMMUNICATIONS, 167 (2), 103-128 (2005). 
 QUICKSTEP: Fast and accurate density functional calculations using a
 mixed Gaussian and plane waves approach.
 http://dx.doi.org/10.1016/j.cpc.2004.12.014


 Frigo, M; Johnson, SG. 
 PROCEEDINGS OF THE IEEE, 93 (2), 216-231 (2005). 
 The design and implementation of FFTW3.
 http://dx.doi.org/10.1109/JPROC.2004.840301


 Heyd, J; Scuseria, GE. 
 JOURNAL OF CHEMICAL PHYSICS, 120 (16), 7274-7280 (2004). 
 Assessment and validation of a screened Coulomb hybrid density
 functional.
 http://dx.doi.org/10.1063/1.1668634


 VandeVondele, J; Hutter, J. 
 JOURNAL OF CHEMICAL PHYSICS, 118 (10), 4365-4369 (2003). 
 An efficient orbital transformation method for electronic structure
 calculations.
 http://dx.doi.org/10.1063/1.1543154


 Hartwigsen, C; Goedecker, S; Hutter, J. 
 PHYSICAL REVIEW B, 58 (7), 3641-3662 (1998). 
 Relativistic separable dual-space Gaussian pseudopotentials from H to Rn.
 http://dx.doi.org/10.1103/PhysRevB.58.3641


 Lippert, G; Hutter, J; Parrinello, M. 
 MOLECULAR PHYSICS, 92 (3), 477-487 (1997). 
 A hybrid Gaussian and plane wave density functional scheme.
 http://dx.doi.org/10.1080/002689797170220


 Perdew, JP; Burke, K; Ernzerhof, M. 
 PHYSICAL REVIEW LETTERS, 77 (18), 3865-3868 (1996). 
 Generalized gradient approximation made simple.
 http://dx.doi.org/10.1103/PhysRevLett.77.3865


 Goedecker, S; Teter, M; Hutter, J. 
 PHYSICAL REVIEW B, 54 (3), 1703-1710 (1996). 
 Separable dual-space Gaussian pseudopotentials.
 http://dx.doi.org/10.1103/PhysRevB.54.1703


 -------------------------------------------------------------------------------
 -                                                                             -
 -                                T I M I N G                                  -
 -                                                                             -
 -------------------------------------------------------------------------------
 SUBROUTINE                       CALLS  ASD         SELF TIME        TOTAL TIME
                                MAXIMUM       AVERAGE  MAXIMUM  AVERAGE  MAXIMUM
 CP2K                                 1  1.0    0.086    0.096 1022.375 1022.376
 qs_energies                          1  2.0    0.000    0.000 1021.292 1021.292
 scf_env_do_scf                       1  3.0    0.000    0.000  727.864  727.864
 scf_env_do_scf_inner_loop           33  4.0    0.002    0.002  648.196  648.206
 qs_ks_update_qs_env                 34  5.0    0.000    0.000  531.178  531.180
 rebuild_ks_matrix                   33  6.0    0.000    0.000  531.064  531.066
 qs_ks_build_kohn_sham_matrix        33  7.0    0.006    0.006  531.063  531.065
 dbcsr_multiply_generic            2974  8.7    0.192    0.196  459.486  459.878
 scf_post_calculation_gpw             1  3.0    0.000    0.000  290.866  290.866
 make_lumo                            1  4.0    0.000    0.000  288.262  288.262
 ot_eigensolver                       2  5.0    0.003    0.003  287.670  287.671
 hfx_ks_matrix                       33  8.0    0.001    0.002  281.607  281.685
 integrate_four_center               33  9.0    0.178    0.406  281.499  281.573
 integrate_four_center_main          33 10.0    0.010    0.011  266.364  272.479
 integrate_four_center_bin         2112 11.0  266.354  272.470  266.354  272.470
 multiply_cannon                   2974  9.7    0.520    0.532  242.867  243.967
 mp_deallocate_d                  48727 12.8  227.618  228.344  227.618  228.344
 ot_mini                            161  6.4    0.001    0.001  220.489  220.496
 qs_ot_get_derivative                99  7.7    0.001    0.001  198.330  198.348
 dbcsr_destroy                    41680 10.5    0.150    0.153  181.850  182.174
 qs_vxc_create                       66  8.0    0.004    0.006  173.100  173.144
 mp_deallocate_i                  37586 12.8  171.492  172.850  171.492  172.850
 make_m2s                          5948  9.7    0.186    0.191  160.480  161.423
 qs_scf_new_mos                      33  5.0    0.000    0.000  153.904  153.913
 qs_scf_loop_do_ot                   33  6.0    0.000    0.000  153.903  153.912
 xc_rho_set_and_dset_create          66 10.0    0.576    0.609  134.810  146.111
 ot_scf_mini                         33  7.0    0.002    0.002  141.764  141.773
 dbcsr_data_release              203515 12.3    0.637    0.748  135.452  135.677
 xc_functional_eval                 165 11.0    0.001    0.002  108.201  119.392
 make_images                       5948 10.7    0.291    0.305   99.463  100.528
 xc_vxc_pw_create                    34  9.0    0.575    0.606   99.723   99.723
 qs_ot_get_p                        200  6.7    0.001    0.002   93.766   94.120
 setup_buffer_matrices             5948 10.7    0.116    0.120   87.184   87.309
 dbcsr_create_new                 43301 11.3    0.234    0.239   83.860   84.417
 dbcsr_make_index_exist           43301 12.3    0.118    0.122   82.260   82.786
 pw_transfer                       3395 10.0    0.211    0.249   70.473   80.857
 fft_wrap_pw1pw2                   3048 11.1    0.026    0.031   69.785   80.159
 init_scf_loop                        1  4.0    0.000    0.000   79.654   79.654
 qs_ot_get_derivative_diag           54  8.0    0.002    0.002   78.806   78.819
 qs_ot_get_derivative_taylor         45  9.5    0.002    0.002   73.761   73.775
 fft_wrap_pw1pw2_400               1047 12.2    5.667    6.704   62.033   72.117
 xpbe_hole_t_c_lr_lsd_eval           66 12.0   60.352   65.462   60.352   65.462
 fft3d_ps                          3048 13.1   27.228   28.188   52.924   63.705
 calculate_rho_elec                 134  7.5   29.658   29.925   63.077   63.096
 xc_exc_calc                         32  9.0    0.058    0.061   62.488   62.488
 dbcsr_make_images_dense           5166 11.0    0.094    0.097   60.744   60.859
 qs_ot_get_orbitals                 198  6.7    0.001    0.001   56.918   56.950
 xwpbe_lsd_eval                      66 12.0   41.499   48.674   41.499   48.674
 dbcsr_special_finalize            8922 11.7    0.035    0.036   44.856   45.811
 buffer_matrices_ensure_size       5948 10.7    0.821    0.870   40.534   41.076
 qs_rho_update_rho                   34  5.0    0.000    0.000   40.378   40.389
 quick_finalize                    8719 12.7    0.043    0.048   38.749   39.714
 admm_mo_calc_rho_aux                33  8.0    0.001    0.001   37.588   37.640
 dbcsr_switch_data_area           23439 12.7    0.029    0.030   35.251   35.434
 qs_ot_p2m_diag                     112  7.0    0.003    0.003   33.053   33.128
 mp_alltoall_z22v                  3048 15.1   18.331   31.254   18.331   31.254
 mp_waitall_1                    256498 12.1   29.833   30.993   29.833   30.993
 density_rs2pw                      134  8.5    0.009    0.010   30.127   30.645
 sum_up_and_integrate                17  8.0    0.230    0.241   28.262   28.266
 integrate_v_rspace                  68  9.0   13.946   14.176   28.027   28.053
 yz_to_x                           1553 13.8    2.621    2.968   15.097   26.794
 qs_ot_p2m_taylor                    88  8.5    0.002    0.002   25.226   25.240
 rs_pw_transfer                     825  9.9    0.009    0.010   23.505   24.003
 apply_preconditioner_dbcsr         105  8.7    0.000    0.000   23.135   23.233
 apply_single                       105  9.7    0.000    0.000   23.135   23.233
 ot_new_cg_direction                 82  7.4    0.001    0.001   22.028   22.029
 multiply_cannon_metrocomm3       23792 10.7    0.095    0.099   20.652   21.711
 -------------------------------------------------------------------------------

 The number of warnings for this run is : 2
 
 -------------------------------------------------------------------------------
  **** **** ******  **  PROGRAM ENDED AT                 2024-03-15 00:21:36.834
 ***** ** ***  *** **   PROGRAM RAN ON                                      tc23
 **    ****   ******    PROGRAM RAN BY                                  fambrosi
 ***** **    ** ** **   PROGRAM PROCESS ID                                 20324
  **** **  *******  **  PROGRAM STOPPED IN          /scratch/fambrosi.55040.tccw
