 DBCSR| Multiplication driver                                               BLAS
 DBCSR| Multrec recursion limit                                              512
 DBCSR| Multiplication stack size                                           1000
 DBCSR| Maximum elements for images                                    UNLIMITED
 DBCSR| Multiplicative factor virtual images                                   1
 DBCSR| Multiplication size stacks                                             3
 DBCSR| Number of 3D layers                                               SINGLE
 DBCSR| Use MPI memory allocation                                              T
 DBCSR| Use RMA algorithm                                                      F
 DBCSR| Use Communication thread                                               T
 DBCSR| Communication thread load                                             87


  **** **** ******  **  PROGRAM STARTED AT               2024-03-16 15:10:58.297
 ***** ** ***  *** **   PROGRAM STARTED ON                                  tc23
 **    ****   ******    PROGRAM STARTED BY                              fambrosi
 ***** **    ** ** **   PROGRAM PROCESS ID                                 13125
  **** **  *******  **  PROGRAM STARTED IN          /scratch/fambrosi.55135.tccw

 CP2K| version string:                                          CP2K version 6.1
 CP2K| source code revision number:                                    svn:18464
 CP2K| cp2kflags: libint fftw3 libxc parallel mpi3 scalapack has_no_shared_glibc
 CP2K|             libderiv_max_am1=5 libint_max_am=6 max_contr=4 mkl
 CP2K| is freely available from                            https://www.cp2k.org/
 CP2K| Program compiled at                         Mon Jun 25 12:26:44 CEST 2018
 CP2K| Program compiled on                                                  tccw
 CP2K| Program compiled for                     Linux-x86-64-intel.MPI-OPENMP.O2
 CP2K| Data directory path                           /home/edoardo/cp2k-6.1/data
 CP2K| Input file name        /home/fambrosi/hydroxyl/test-koopman/anion/gga4/el
 
 GLOBAL| Force Environment number                                              1
 GLOBAL| Basis set file name               /usr/local/cp2k-6.1/data/BASIS_MOLOPT
 GLOBAL| Potential file name             /usr/local/cp2k-6.1/data/GTH_POTENTIALS
 GLOBAL| MM Potential file name                                     MM_POTENTIAL
 GLOBAL| Coordinate file name                                      __STD_INPUT__
 GLOBAL| Method name                                                        CP2K
 GLOBAL| Project name                                               water+I-.dyn
 GLOBAL| Preferred FFT library                                             FFTW3
 GLOBAL| Preferred diagonalization lib.                                       SL
 GLOBAL| Run type                                                         ENERGY
 GLOBAL| All-to-all communication in single precision                          F
 GLOBAL| FFTs using library dependent lengths                                  T
 GLOBAL| Global print level                                                  LOW
 GLOBAL| Total number of message passing processes                            64
 GLOBAL| Number of threads for this process                                    1
 GLOBAL| This output is from process                                           0
 GLOBAL| CPU model name :  Intel(R) Xeon(R) CPU E5-2683 v4 @ 2.10GHz

 MEMORY| system memory details [Kb]
 MEMORY|                        rank 0           min           max       average
 MEMORY| MemTotal            264564380     264564380     264564496     264564438
 MEMORY| MemFree              33415492      33415492      73634144      53524818
 MEMORY| Buffers                196620        185488        196620        191054
 MEMORY| Cached              220993504     181386120     220993504     201189812
 MEMORY| Slab                  6360920       5771916       6360920       6066418
 MEMORY| SReclaimable          6283436       5695988       6283436       5989712
 MEMORY| MemLikelyFree       260889052     260889052     260901740     260895396

 
 GENERATE|  Preliminary Number of Bonds generated:                             0
 GENERATE|  Achieved consistency in connectivity generation.

 *******************************************************************************
 *******************************************************************************
 **                                                                           **
 **     #####                         ##              ##                      **
 **    ##   ##            ##          ##              ##                      **
 **   ##     ##                       ##            ######                    **
 **   ##     ##  ##   ##  ##   #####  ##  ##   ####   ##    #####    #####    **
 **   ##     ##  ##   ##  ##  ##      ## ##   ##      ##   ##   ##  ##   ##   **
 **   ##  ## ##  ##   ##  ##  ##      ####     ###    ##   ######   ######    **
 **    ##  ###   ##   ##  ##  ##      ## ##      ##   ##   ##       ##        **
 **     #######   #####   ##   #####  ##  ##  ####    ##    #####   ##        **
 **           ##                                                    ##        **
 **                                                                           **
 **                                                ... make the atoms dance   **
 **                                                                           **
 **            Copyright (C) by CP2K developers group (2000 - 2018)           **
 **                                                                           **
 *******************************************************************************


 TOTAL NUMBERS AND MAXIMUM NUMBERS

  Total number of            - Atomic kinds:                                   2
                             - Atoms:                                        191
                             - Shell sets:                                  1146
                             - Shells:                                      1338
                             - Primitive Cartesian functions:               1528
                             - Cartesian basis functions:                   4081
                             - Spherical basis functions:                   3634

  Maximum angular momentum of- Orbital basis functions:                        3
                             - Local part of the GTH pseudopotential:          2
                             - Non-local part of the GTH pseudopotential:      0


 SCF PARAMETERS         Density guess:                                   RESTART
                        --------------------------------------------------------
                        max_scf:                                              50
                        max_scf_history:                                       0
                        max_diis:                                              4
                        --------------------------------------------------------
                        eps_scf:                                        1.00E-05
                        eps_scf_history:                                0.00E+00
                        eps_diis:                                       1.00E-01
                        eps_eigval:                                     1.00E-05
                        --------------------------------------------------------
                        level_shift [a.u.]:                                 0.00
                        --------------------------------------------------------
                        Outer loop SCF in use 
                        No variables optimised in outer loop
                        eps_scf                                         1.00E-05
                        max_scf                                               50
                        No outer loop optimization
                        step_size                                       5.00E-01

 Number of electrons:                                                        512
 Number of occupied orbitals:                                                256
 Number of molecular orbitals:                                               256

 Number of orbital functions:                                               3634
 Number of independent orbital functions:                                   3634

 Extrapolation method: initial_guess

 *** WARNING in qs_initial_guess.F:263 :: User requested to restart the    ***
 *** wavefunction from the file named: water+I-.dyn-RESTART.wfn. This file ***
 *** does not exist. Please check the existence of the file or change      ***
 *** properly the value of the keyword WFN_RESTART_FILE_NAME. Calculation  ***
 *** continues using ATOMIC GUESS.                                         ***



 SCF WAVEFUNCTION OPTIMIZATION

  ----------------------------------- OT ---------------------------------------
  Minimizer      : DIIS                : direct inversion
                                         in the iterative subspace
                                         using   7 DIIS vectors
                                         safer DIIS on
  Preconditioner : FULL_SINGLE_INVERSE : inversion of 
                                         H + eS - 2*(Sc)(c^T*H*c+const)(Sc)^T
  Precond_solver : DEFAULT
  stepsize       :    0.08000000                  energy_gap     :    0.08000000
  eps_taylor     :   0.10000E-15                  max_taylor     :             4
  ----------------------------------- OT ---------------------------------------

  Step     Update method      Time    Convergence         Total energy    Change
  ------------------------------------------------------------------------------
     1 OT DIIS     0.80E-01    4.6     0.01853700     -1060.5803165441 -1.06E+03
     2 OT DIIS     0.80E-01    4.5     0.01372558     -1079.9142419133 -1.93E+01
     3 OT DIIS     0.80E-01    4.6     0.01124858     -1090.2155952714 -1.03E+01
     4 OT DIIS     0.80E-01    4.6     0.00745948     -1098.5633413552 -8.35E+00
     5 OT DIIS     0.80E-01    4.5     0.00431262     -1102.8157955541 -4.25E+00
     6 OT DIIS     0.80E-01    4.4     0.00266061     -1104.3032681330 -1.49E+00
     7 OT DIIS     0.80E-01    4.5     0.00204654     -1104.8553968139 -5.52E-01
     8 OT DIIS     0.80E-01    4.5     0.00148880     -1105.1988483596 -3.43E-01
     9 OT DIIS     0.80E-01    4.5     0.00096268     -1105.4193840842 -2.21E-01
    10 OT DIIS     0.80E-01    4.4     0.00073354     -1105.4875863192 -6.82E-02
    11 OT DIIS     0.80E-01    4.4     0.00053133     -1105.5555561689 -6.80E-02
    12 OT DIIS     0.80E-01    4.5     0.00038593     -1105.5953906522 -3.98E-02
    13 OT DIIS     0.80E-01    4.4     0.00028817     -1105.6160229763 -2.06E-02
    14 OT DIIS     0.80E-01    4.4     0.00019547     -1105.6307079690 -1.47E-02
    15 OT DIIS     0.80E-01    4.5     0.00014064     -1105.6385408748 -7.83E-03
    16 OT DIIS     0.80E-01    4.7     0.00010554     -1105.6423565956 -3.82E-03
    17 OT DIIS     0.80E-01    4.4     0.00008284     -1105.6445710029 -2.21E-03
    18 OT DIIS     0.80E-01    4.4     0.00006871     -1105.6458019762 -1.23E-03
    19 OT DIIS     0.80E-01    4.4     0.00005492     -1105.6468092911 -1.01E-03
    20 OT DIIS     0.80E-01    4.5     0.00004731     -1105.6474422661 -6.33E-04
    21 OT DIIS     0.80E-01    4.5     0.00004091     -1105.6479858964 -5.44E-04
    22 OT DIIS     0.80E-01    4.4     0.00003552     -1105.6484604972 -4.75E-04
    23 OT DIIS     0.80E-01    4.4     0.00003148     -1105.6488376969 -3.77E-04
    24 OT DIIS     0.80E-01    4.5     0.00002817     -1105.6491419105 -3.04E-04
    25 OT DIIS     0.80E-01    4.4     0.00002500     -1105.6494169524 -2.75E-04
    26 OT DIIS     0.80E-01    4.5     0.00002228     -1105.6496304244 -2.13E-04
    27 OT DIIS     0.80E-01    4.5     0.00001974     -1105.6498099212 -1.79E-04
    28 OT DIIS     0.80E-01    4.4     0.00001735     -1105.6499638829 -1.54E-04
    29 OT DIIS     0.80E-01    4.5     0.00001533     -1105.6500714970 -1.08E-04
    30 OT DIIS     0.80E-01    4.5     0.00001368     -1105.6501546247 -8.31E-05
    31 OT DIIS     0.80E-01    4.4     0.00001229     -1105.6502217624 -6.71E-05
    32 OT DIIS     0.80E-01    4.3     0.00001118     -1105.6502714229 -4.97E-05
    33 OT DIIS     0.80E-01    4.4     0.00001021     -1105.6503148106 -4.34E-05
    34 OT DIIS     0.80E-01    4.4     0.00000942     -1105.6503492242 -3.44E-05

  *** SCF run converged in    34 steps ***


  Electronic density on regular grids:       -511.9999999999        0.0000000001
  Core density on regular grids:              510.9999999998       -0.0000000002
  Total charge density on r-space grids:       -1.0000000001
  Total charge density g-space grids:          -1.0000000001

  Overlap energy of the core charge distribution:               0.00000190354231
  Self energy of the core charge distribution:              -2836.80744583234036
  Core Hamiltonian energy:                                    828.98110262139630
  Hartree energy:                                            1176.33176313447643
  Exchange-correlation energy:                               -275.12173622875514
  Dispersion energy:                                            0.96596517751708

  Total energy:                                             -1105.65034922416339

  outer SCF iter =    1 RMS gradient =   0.94E-05 energy =      -1105.6503492242
  outer SCF loop converged in   1 iterations or   34 steps


 ENERGY| Total FORCE_EVAL ( QS ) energy (a.u.):            -1105.650349224163392


 -------------------------------------------------------------------------------
 -                                                                             -
 -                                DBCSR STATISTICS                             -
 -                                                                             -
 -------------------------------------------------------------------------------
 COUNTER                                    TOTAL       BLAS       SMM       ACC
 flops    14 x    32 x    32            262176768     100.0%      0.0%      0.0%
 flops    29 x    32 x    32            273678336     100.0%      0.0%      0.0%
 flops   442 x    32 x   442           3500922880     100.0%      0.0%      0.0%
 flops    32 x    32 x   442           7853654016     100.0%      0.0%      0.0%
 flops   442 x    32 x    32           9732882432     100.0%      0.0%      0.0%
 flops    32 x    32 x    32          10066329600     100.0%      0.0%      0.0%
 flops   442 x    32 x   456          25282682880     100.0%      0.0%      0.0%
 flops   456 x    32 x   442          25282682880     100.0%      0.0%      0.0%
 flops    14 x    14 x    32          29135497216     100.0%      0.0%      0.0%
 flops    14 x    29 x    32          30332474368     100.0%      0.0%      0.0%
 flops    29 x    14 x    32          30347025408     100.0%      0.0%      0.0%
 flops    29 x    29 x    32          32242728960     100.0%      0.0%      0.0%
 flops    32 x    32 x   456          56716886016     100.0%      0.0%      0.0%
 flops   456 x    32 x    32          70288146432     100.0%      0.0%      0.0%
 flops    14 x    32 x    14         118809341952     100.0%      0.0%      0.0%
 flops    29 x    32 x    14         124721537024     100.0%      0.0%      0.0%
 flops    14 x    32 x    29         124721537024     100.0%      0.0%      0.0%
 flops    29 x    32 x    29         130514157568     100.0%      0.0%      0.0%
 flops   456 x    32 x   456         182584442880     100.0%      0.0%      0.0%
 flops inhomo. stacks                           0       0.0%      0.0%      0.0%
 flops total                         1.012669E+12     100.0%      0.0%      0.0%
 flops max/rank                     15.977600E+09     100.0%      0.0%      0.0%
 matmuls inhomo. stacks                         0       0.0%      0.0%      0.0%
 matmuls total                           27093776     100.0%      0.0%      0.0%
 number of processed stacks                553376     100.0%      0.0%      0.0%
 average stack size                                    49.0       0.0       0.0
 marketing flops                     1.136708E+12
 -------------------------------------------------------------------------------
 # multiplications                            752
 max memory usage/rank             244.371456E+06
 # max total images/rank                        1
 # max 3D layers                                1
 # MPI messages exchanged                  673792
 MPI messages size (bytes):
  total size                       115.715539E+09
  min size                           0.000000E+00
  max size                           1.663488E+06
  average size                     171.737781E+03
 MPI breakdown and total messages size (bytes):
             size <=      128                1288                        0
       128 < size <=     8192              344568               2822701056
      8192 < size <=    32768                   0                        0
     32768 < size <=   131072              279104              32456445952
    131072 < size <=  4194304               48832              80436267744
   4194304 < size <= 16777216                   0                        0
  16777216 < size                               0                        0
 -------------------------------------------------------------------------------
 
 MEMORY| Estimated peak process memory [MiB]                                 234

 -------------------------------------------------------------------------------
 -                                                                             -
 -                         MESSAGE PASSING PERFORMANCE                         -
 -                                                                             -
 -------------------------------------------------------------------------------

 ROUTINE             CALLS      AVE VOLUME [Bytes]
 MP_Group               50
 MP_Bcast             2898                 335229.
 MP_Allreduce        11126                    336.
 MP_Sync                38
 MP_Alltoall          5084                1418641.
 MP_ISendRecv         8694                  47520.
 MP_Wait             72468
 MP_comm_split          34
 MP_ISend            27118                  99316.
 MP_IRecv            27118                  99533.
 MP_Recv                14                 930304.
 MP_Memory           30466
 -------------------------------------------------------------------------------


 -------------------------------------------------------------------------------
 -                                                                             -
 -                           R E F E R E N C E S                               -
 -                                                                             -
 -------------------------------------------------------------------------------
 
 CP2K version 6.1, the CP2K developers group (2018).
 CP2K is freely available from https://www.cp2k.org/ .

 Lehtola, S; Steigemann, C; Oliveira, MJT; Marques, MAL. 
 SoftwareX, 7, 1-5 (2018). 
 Recent developments in libxc - A comprehensive library of functionals
 for density functional theory.
 http://dx.doi.org/10.1016/j.softx.2017.11.002


 Schuett, Ole; Messmer, Peter; Hutter, Juerg; VandeVondele, Joost. 
 Electronic Structure Calculations on Graphics Processing Units, John Wiley & Sons, Ltd, 173-190 (2016). 
 GPU-Accelerated Sparse Matrix-Matrix Multiplication for Linear Scaling Density Functional Theory.
 http://dx.doi.org/10.1002/9781118670712.ch8


 Borstnik, U; VandeVondele, J; Weber, V; Hutter, J. 
 PARALLEL COMPUTING, 40 (5-6), 47-58 (2014). 
 Sparse matrix multiplication: The distributed block-compressed sparse
 row library.
 http://dx.doi.org/10.1016/j.parco.2014.03.012


 Hutter, J; Iannuzzi, M; Schiffmann, F; VandeVondele, J. 
 WILEY INTERDISCIPLINARY REVIEWS-COMPUTATIONAL MOLECULAR SCIENCE, 4 (1), 15-25 (2014). 
 CP2K: atomistic simulations of condensed matter systems.
 http://dx.doi.org/10.1002/wcms.1159


 Sabatini, R; Gorni, T; de Gironcoli, S. 
 Phys. Rev. B, 87 (4), 041108(R) (2013). 
 Nonlocal van der Waals density functional made simple and efficient.
 http://dx.doi.org/10.1103/PhysRevB.87.041108


 Marques, MAL; Oliveira, MJT; Burnus, T. 
 COMPUTER PHYSICS COMMUNICATIONS, 183 (10), 2272-2281 (2012). 
 LIBXC: A library of exchange and correlation functionals for density
 functional theory.
 http://dx.doi.org/10.1016/j.cpc.2012.05.007


 Roman-Perez, G; Soler, JM. 
 Phys. Rev. Lett., 103 (9), 096102 (2009). 
 Efficient Implementation of a van der Waals Density Functional:
 Application to Double-Wall Carbon Nanotubes.
 http://dx.doi.org/10.1103/PhysRevLett.103.096102


 VandeVondele, J; Hutter, J. 
 JOURNAL OF CHEMICAL PHYSICS, 127 (11), 114105 (2007). 
 Gaussian basis sets for accurate calculations on molecular systems in
 gas and condensed phases.
 http://dx.doi.org/10.1063/1.2770708


 Krack, M. 
 THEORETICAL CHEMISTRY ACCOUNTS, 114 (1-3), 145-152 (2005). 
 Pseudopotentials for H to Kr optimized for gradient-corrected
 exchange-correlation functionals.
 http://dx.doi.org/10.1007/s00214-005-0655-y


 VandeVondele, J; Krack, M; Mohamed, F; Parrinello, M; Chassaing, T;
 Hutter, J. COMPUTER PHYSICS COMMUNICATIONS, 167 (2), 103-128 (2005). 
 QUICKSTEP: Fast and accurate density functional calculations using a
 mixed Gaussian and plane waves approach.
 http://dx.doi.org/10.1016/j.cpc.2004.12.014


 Frigo, M; Johnson, SG. 
 PROCEEDINGS OF THE IEEE, 93 (2), 216-231 (2005). 
 The design and implementation of FFTW3.
 http://dx.doi.org/10.1109/JPROC.2004.840301


 VandeVondele, J; Hutter, J. 
 JOURNAL OF CHEMICAL PHYSICS, 118 (10), 4365-4369 (2003). 
 An efficient orbital transformation method for electronic structure
 calculations.
 http://dx.doi.org/10.1063/1.1543154


 Hartwigsen, C; Goedecker, S; Hutter, J. 
 PHYSICAL REVIEW B, 58 (7), 3641-3662 (1998). 
 Relativistic separable dual-space Gaussian pseudopotentials from H to Rn.
 http://dx.doi.org/10.1103/PhysRevB.58.3641


 Lippert, G; Hutter, J; Parrinello, M. 
 MOLECULAR PHYSICS, 92 (3), 477-487 (1997). 
 A hybrid Gaussian and plane wave density functional scheme.
 http://dx.doi.org/10.1080/002689797170220


 Goedecker, S; Teter, M; Hutter, J. 
 PHYSICAL REVIEW B, 54 (3), 1703-1710 (1996). 
 Separable dual-space Gaussian pseudopotentials.
 http://dx.doi.org/10.1103/PhysRevB.54.1703


 -------------------------------------------------------------------------------
 -                                                                             -
 -                                T I M I N G                                  -
 -                                                                             -
 -------------------------------------------------------------------------------
 SUBROUTINE                       CALLS  ASD         SELF TIME        TOTAL TIME
                                MAXIMUM       AVERAGE  MAXIMUM  AVERAGE  MAXIMUM
 CP2K                                 1  1.0    0.066    0.105  154.435  154.436
 qs_energies                          1  2.0    0.000    0.000  153.665  153.665
 scf_env_do_scf                       1  3.0    0.000    0.000  152.347  152.348
 scf_env_do_scf_inner_loop           34  4.0    0.001    0.002  149.396  149.428
 dbcsr_multiply_generic             752 10.1    0.045    0.048   89.107   89.327
 qs_scf_new_mos                      34  5.0    0.000    0.000   84.679   84.799
 qs_scf_loop_do_ot                   34  6.0    0.000    0.000   84.678   84.799
 ot_scf_mini                         34  7.0    0.002    0.002   80.186   80.321
 ot_mini                             34  8.0    0.000    0.000   55.281   55.434
 qs_ks_update_qs_env                 35  5.0    0.000    0.001   51.067   51.150
 rebuild_ks_matrix                   34  6.0    0.000    0.000   51.000   51.084
 qs_ks_build_kohn_sham_matrix        34  7.0    0.005    0.008   51.000   51.083
 qs_ot_get_derivative                34  9.0    0.000    0.000   49.560   49.669
 multiply_cannon                    752 11.1    0.115    0.123   44.837   45.692
 mp_deallocate_d                   8828 14.3   41.911   42.778   41.911   42.778
 qs_ot_get_derivative_diag           33 10.0    0.001    0.001   37.726   37.876
 dbcsr_destroy                     8553 11.8    0.028    0.029   33.420   34.105
 make_m2s                          1504 11.1    0.046    0.048   32.501   32.822
 pw_transfer                       2590  9.9    0.118    0.144   30.619   31.900
 fft_wrap_pw1pw2                   2352 10.9    0.015    0.018   30.164   31.591
 qs_vxc_create                       34  8.0    0.004    0.013   30.661   30.938
 mp_deallocate_i                   6407 14.2   29.450   29.976   29.450   29.976
 fft3d_ps                          2352 12.9    7.359   11.109   26.059   28.522
 dbcsr_data_release               50771 13.7    0.198    0.338   26.497   27.134
 fft_wrap_pw1pw2_400                411 11.8    1.410    2.311   22.016   22.817
 mp_alltoall_z22v                  2352 14.9   16.893   21.780   16.893   21.780
 make_images                       1504 12.1    0.062    0.068   19.869   20.023
 xc_vxc_pw_create                    34  9.0    0.100    0.116   18.719   18.988
 qs_rho_update_rho                   35  5.0    0.000    0.000   15.571   15.610
 calculate_rho_elec                  35  6.0    5.914    6.098   15.571   15.610
 setup_buffer_matrices             1504 12.1    0.020    0.021   15.181   15.558
 dbcsr_create_new                  8867 12.5    0.045    0.047   14.232   14.508
 dbcsr_make_index_exist            8867 13.5    0.021    0.022   13.924   14.170
 sum_up_and_integrate                34  8.0    0.089    0.155   13.126   13.412
 integrate_v_rspace                  34  9.0    5.457    5.616   13.038   13.346
 qs_ot_get_p                         35  7.9    0.000    0.000   13.130   13.241
 dbcsr_make_images_dense           1350 12.3    0.019    0.020   12.565   12.766
 calculate_dispersion_nonloc         34  9.0    0.973    1.310   11.939   12.633
 yz_to_x                           1058 13.8    0.520    0.728    9.181   12.034
 x_to_yz                           1225 14.0    1.210    2.556    9.437   11.040
 xc_rho_set_and_dset_create          34 10.0    0.070    0.099    9.954   10.614
 rs_pw_transfer                     277  9.5    0.003    0.003    8.255    8.528
 dbcsr_special_finalize            1504 13.1    0.006    0.006    8.085    8.254
 quick_finalize                    1685 13.9    0.009    0.011    8.076    8.244
 density_rs2pw                       35  7.0    0.002    0.003    7.967    8.146
 qs_ot_p2m_diag                      34  9.0    0.005    0.005    8.072    8.126
 mp_waitall_1                     69410 13.3    6.667    7.795    6.667    7.795
 fft_wrap_pw1pw2_100               1734 12.0    0.409    0.695    7.154    7.738
 buffer_matrices_ensure_size       1504 12.1    0.110    0.131    7.344    7.699
 qs_ot_get_orbitals                  34  8.0    0.000    0.000    7.438    7.466
 potential_pw2rs                     34 10.0    0.009    0.010    6.744    7.088
 dbcsr_switch_data_area            4879 13.8    0.006    0.006    6.744    6.837
 apply_preconditioner_dbcsr          35 10.0    0.000    0.000    5.513    5.632
 apply_single                        35 11.0    0.000    0.000    5.513    5.632
 ot_diis_step                        34  9.0    0.002    0.002    5.605    5.605
 multiply_cannon_metrocomm1        6016 12.1    0.023    0.027    3.117    4.828
 mp_waitany                        3058 11.5    3.877    4.730    3.877    4.730
 calculate_dm_sparse                 35  7.0    0.000    0.000    4.637    4.663
 xc_functional_eval                  68 11.0    0.000    0.001    3.599    4.331
 libxc_lda_eval                      68 12.0    3.598    4.330    3.599    4.331
 make_images_sizes                 1504 13.1    0.002    0.003    3.470    3.981
 mp_alltoall_i44                   1504 14.1    3.467    3.979    3.467    3.979
 mp_sum_l                          3641 11.1    2.777    3.405    2.777    3.405
 -------------------------------------------------------------------------------

 The number of warnings for this run is : 1
 
 -------------------------------------------------------------------------------
  **** **** ******  **  PROGRAM ENDED AT                 2024-03-16 15:13:33.363
 ***** ** ***  *** **   PROGRAM RAN ON                                      tc23
 **    ****   ******    PROGRAM RAN BY                                  fambrosi
 ***** **    ** ** **   PROGRAM PROCESS ID                                 13125
  **** **  *******  **  PROGRAM STOPPED IN          /scratch/fambrosi.55135.tccw
