 DBCSR| Multiplication driver                                               BLAS
 DBCSR| Multrec recursion limit                                              512
 DBCSR| Multiplication stack size                                           1000
 DBCSR| Maximum elements for images                                    UNLIMITED
 DBCSR| Multiplicative factor virtual images                                   1
 DBCSR| Multiplication size stacks                                             3
 DBCSR| Number of 3D layers                                               SINGLE
 DBCSR| Use MPI memory allocation                                              T
 DBCSR| Use RMA algorithm                                                      F
 DBCSR| Use Communication thread                                               T
 DBCSR| Communication thread load                                             87


  **** **** ******  **  PROGRAM STARTED AT               2024-03-14 23:42:25.878
 ***** ** ***  *** **   PROGRAM STARTED ON                                  tc22
 **    ****   ******    PROGRAM STARTED BY                              fambrosi
 ***** **    ** ** **   PROGRAM PROCESS ID                                 13853
  **** **  *******  **  PROGRAM STARTED IN          /scratch/fambrosi.55038.tccw

 CP2K| version string:                                          CP2K version 6.1
 CP2K| source code revision number:                                    svn:18464
 CP2K| cp2kflags: libint fftw3 libxc parallel mpi3 scalapack has_no_shared_glibc
 CP2K|             libderiv_max_am1=5 libint_max_am=6 max_contr=4 mkl
 CP2K| is freely available from                            https://www.cp2k.org/
 CP2K| Program compiled at                         Mon Jun 25 12:26:44 CEST 2018
 CP2K| Program compiled on                                                  tccw
 CP2K| Program compiled for                     Linux-x86-64-intel.MPI-OPENMP.O2
 CP2K| Data directory path                           /home/edoardo/cp2k-6.1/data
 CP2K| Input file name        /home/fambrosi/hydroxyl/test-koopman/radical/hyb4/
 
 GLOBAL| Force Environment number                                              1
 GLOBAL| Basis set file name               /usr/local/cp2k-6.1/data/BASIS_MOLOPT
 GLOBAL| Potential file name             /usr/local/cp2k-6.1/data/GTH_POTENTIALS
 GLOBAL| MM Potential file name                                     MM_POTENTIAL
 GLOBAL| Coordinate file name                                      __STD_INPUT__
 GLOBAL| Method name                                                        CP2K
 GLOBAL| Project name                                               water+I-.dyn
 GLOBAL| Preferred FFT library                                             FFTW3
 GLOBAL| Preferred diagonalization lib.                                       SL
 GLOBAL| Run type                                                         ENERGY
 GLOBAL| All-to-all communication in single precision                          F
 GLOBAL| FFTs using library dependent lengths                                  T
 GLOBAL| Global print level                                                  LOW
 GLOBAL| Total number of message passing processes                            32
 GLOBAL| Number of threads for this process                                    1
 GLOBAL| This output is from process                                           0
 GLOBAL| CPU model name :  Intel(R) Xeon(R) CPU E5-2683 v4 @ 2.10GHz

 MEMORY| system memory details [Kb]
 MEMORY|                        rank 0           min           max       average
 MEMORY| MemTotal            264564496     264564496     264564496     264564496
 MEMORY| MemFree             155943712     155943712     155943712     155943712
 MEMORY| Buffers                192868        192868        192868        192868
 MEMORY| Cached              102616596     102616596     102616596     102616596
 MEMORY| Slab                  2914072       2914072       2914072       2914072
 MEMORY| SReclaimable          2848000       2848000       2848000       2848000
 MEMORY| MemLikelyFree       261601176     261601176     261601176     261601176

 
 GENERATE|  Preliminary Number of Bonds generated:                             0
 GENERATE|  Achieved consistency in connectivity generation.

 *******************************************************************************
 *******************************************************************************
 **                                                                           **
 **     #####                         ##              ##                      **
 **    ##   ##            ##          ##              ##                      **
 **   ##     ##                       ##            ######                    **
 **   ##     ##  ##   ##  ##   #####  ##  ##   ####   ##    #####    #####    **
 **   ##     ##  ##   ##  ##  ##      ## ##   ##      ##   ##   ##  ##   ##   **
 **   ##  ## ##  ##   ##  ##  ##      ####     ###    ##   ######   ######    **
 **    ##  ###   ##   ##  ##  ##      ## ##      ##   ##   ##       ##        **
 **     #######   #####   ##   #####  ##  ##  ####    ##    #####   ##        **
 **           ##                                                    ##        **
 **                                                                           **
 **                                                ... make the atoms dance   **
 **                                                                           **
 **            Copyright (C) by CP2K developers group (2000 - 2018)           **
 **                                                                           **
 *******************************************************************************


 TOTAL NUMBERS AND MAXIMUM NUMBERS

  Total number of            - Atomic kinds:                                   2
                             - Atoms:                                        191
                             - Shell sets:                                  1146
                             - Shells:                                      1338
                             - Primitive Cartesian functions:               1528
                             - Cartesian basis functions:                   4081
                             - Spherical basis functions:                   3634

  Maximum angular momentum of- Orbital basis functions:                        3
                             - Local part of the GTH pseudopotential:          2
                             - Non-local part of the GTH pseudopotential:      0

  AUX_FIT ADMM-Basis: 
  Total number of            - Shell sets:                                   510
                             - Shells:                                       510
                             - Primitive Cartesian functions:                765
                             - Cartesian basis functions:                    766
                             - Spherical basis functions:                    766
                               Maximum angular momentum                        1


 SCF PARAMETERS         Density guess:                                   RESTART
                        --------------------------------------------------------
                        max_scf:                                              50
                        max_scf_history:                                       0
                        max_diis:                                              4
                        --------------------------------------------------------
                        eps_scf:                                        1.00E-05
                        eps_scf_history:                                0.00E+00
                        eps_diis:                                       1.00E-01
                        eps_eigval:                                     1.00E-05
                        --------------------------------------------------------
                        level_shift [a.u.]:                                 0.00
                        --------------------------------------------------------
                        Outer loop SCF in use 
                        No variables optimised in outer loop
                        eps_scf                                         1.00E-05
                        max_scf                                               50
                        No outer loop optimization
                        step_size                                       5.00E-01

 Spin 1

 Number of electrons:                                                        256
 Number of occupied orbitals:                                                256
 Number of molecular orbitals:                                               256

 Spin 2

 Number of electrons:                                                        255
 Number of occupied orbitals:                                                255
 Number of molecular orbitals:                                               255

 Number of orbital functions:                                               3634
 Number of independent orbital functions:                                   3634

 Extrapolation method: initial_guess


 SCF WAVEFUNCTION OPTIMIZATION

  ----------------------------------- OT ---------------------------------------
  Minimizer      : CG                  : conjugate gradient
  Preconditioner : FULL_SINGLE_INVERSE : inversion of 
                                         H + eS - 2*(Sc)(c^T*H*c+const)(Sc)^T
  Precond_solver : DEFAULT
  Line search    : 2PNT                : 2 energies, one gradient
  stepsize       :    0.08000000                  energy_gap     :    0.08000000
  eps_taylor     :   0.10000E-15                  max_taylor     :             4
  ----------------------------------- OT ---------------------------------------

  Step     Update method      Time    Convergence         Total energy    Change
  ------------------------------------------------------------------------------

 *** WARNING in hfx_energy_potential.F:605 :: The Kohn Sham matrix is not  ***
 *** 100% occupied. This may result in incorrect Hartree-Fock results. Try ***
 *** to decrease EPS_PGF_ORB and EPS_FILTER_MATRIX in the QS section. For  ***
 *** more information see FAQ: https://www.cp2k.org/faq:hfx_eps_warning    ***

     1 OT CG       0.80E-01   83.0     0.00073592     -1099.5336088331 -1.10E+03
     2 OT LS       0.32E+00   15.5                    -1099.6042775441
     3 OT CG       0.32E+00   23.9     0.00035444     -1099.7004923579 -1.67E-01
     4 OT LS       0.12E+00   15.4                    -1099.6759410800
     5 OT CG       0.12E+00   24.4     0.00029218     -1099.7156211513 -1.51E-02
     6 OT LS       0.77E-01   15.3                    -1099.7197926484
     7 OT CG       0.77E-01   24.1     0.00010424     -1099.7219238796 -6.30E-03
     8 OT LS       0.14E+00   15.2                    -1099.7230413096
     9 OT CG       0.14E+00   24.5     0.00006012     -1099.7233023374 -1.38E-03
    10 OT LS       0.76E-01   15.2                    -1099.7233912012
    11 OT CG       0.76E-01   25.0     0.00003607     -1099.7235556949 -2.53E-04
    12 OT LS       0.12E+00   15.2                    -1099.7236822209
    13 OT CG       0.12E+00   25.1     0.00001871     -1099.7237042571 -1.49E-04
    14 OT LS       0.11E+00   15.3                    -1099.7237386267
    15 OT CG       0.11E+00   24.7     0.00001278     -1099.7237393215 -3.51E-05
    16 OT LS       0.94E-01   15.4                    -1099.7237531492
    17 OT CG       0.94E-01   24.5     0.00000689     -1099.7237534893 -1.42E-05

  *** SCF run converged in    17 steps ***


  Electronic density on regular grids:       -510.9999999995        0.0000000005
  Core density on regular grids:              510.9999999998       -0.0000000002
  Total charge density on r-space grids:        0.0000000004
  Total charge density g-space grids:           0.0000000004

  Overlap energy of the core charge distribution:               0.00000315819848
  Self energy of the core charge distribution:              -2836.80744583234036
  Core Hamiltonian energy:                                    827.09595519439335
  Hartree energy:                                            1178.98559046791297
  Exchange-correlation energy:                               -170.72993820692946
  Hartree-Fock Exchange energy:                              -100.41483649311539
  Dispersion energy:                                            2.14691822260179

  Total energy:                                             -1099.72375348927858

  outer SCF iter =    1 RMS gradient =   0.69E-05 energy =      -1099.7237534893
  outer SCF loop converged in   1 iterations or   17 steps


  Integrated absolute spin density  :                               1.0843833489
  Ideal and single determinant S**2 :                    0.750000       0.753099

 The sum of alpha and beta density is written in cube file format to the file:

 water+I-.dyn-ELECTRON_DENSITY-1_0.cube

 The spin density is written in cube file format to the file:

 water+I-.dyn-SPIN_DENSITY-1_0.cube
  
  Eigenvalues of the occupied subspace spin            1
 ---------------------------------------------
      -1.02363827     -1.02135072     -1.02087307     -1.01817328
      -1.01576145     -1.01158273     -1.01005217     -1.00927855
      -1.00834831     -1.00620018     -1.00526299     -1.00416179
      -1.00214059     -1.00110772     -1.00014072     -0.99949356
      -0.99837001     -0.99634720     -0.99586081     -0.99366030
      -0.99252170     -0.99132574     -0.99047705     -0.99002350
      -0.98912471     -0.98846387     -0.98815839     -0.98692871
      -0.98590633     -0.98479724     -0.98454384     -0.98302244
      -0.98233935     -0.98172535     -0.98041318     -0.97855501
      -0.97730992     -0.97643168     -0.97588145     -0.97489516
      -0.97386678     -0.97313061     -0.97228870     -0.97149716
      -0.97109850     -0.97047012     -0.96798334     -0.96597623
      -0.96540131     -0.96362870     -0.96321803     -0.96251171
      -0.96038948     -0.95761766     -0.95730246     -0.95629854
      -0.95538605     -0.95472536     -0.95154160     -0.95095427
      -0.94830964     -0.94343462     -0.94131856     -0.93753051
      -0.50776461     -0.50503936     -0.50344911     -0.50107345
      -0.49988858     -0.49551922     -0.49323594     -0.49158776
      -0.49018461     -0.48671930     -0.48441948     -0.48378108
      -0.48293329     -0.48273665     -0.48216109     -0.48063656
      -0.47823736     -0.47806440     -0.47634613     -0.47536774
      -0.47471266     -0.47368367     -0.47277005     -0.47216742
      -0.47116794     -0.47051643     -0.46988419     -0.46872246
      -0.46824625     -0.46754890     -0.46714749     -0.46666049
      -0.46547727     -0.46359497     -0.46298639     -0.46267216
      -0.46158732     -0.46069406     -0.46032084     -0.45961302
      -0.45893935     -0.45780429     -0.45727272     -0.45591993
      -0.45460475     -0.45323128     -0.45247214     -0.45102362
      -0.44983580     -0.44877678     -0.44828960     -0.44694109
      -0.44556994     -0.44306983     -0.44238267     -0.43995466
      -0.43927593     -0.43809288     -0.43616693     -0.43190567
      -0.42939444     -0.42845721     -0.41958009     -0.41122554
      -0.39349519     -0.38824244     -0.38730052     -0.38068830
      -0.37899364     -0.37487579     -0.37404011     -0.37020623
      -0.36826726     -0.36700562     -0.36582893     -0.36350510
      -0.36129457     -0.36013671     -0.35799440     -0.35705589
      -0.35533937     -0.35191198     -0.35048950     -0.34969255
      -0.34740551     -0.34720042     -0.34646238     -0.34553037
      -0.34217587     -0.34114554     -0.33793823     -0.33730537
      -0.33413869     -0.33284093     -0.33086594     -0.32890029
      -0.32659223     -0.32517326     -0.32425438     -0.32217379
      -0.32137968     -0.31889855     -0.31783230     -0.31632599
      -0.31512714     -0.31466047     -0.31376830     -0.31285215
      -0.31082400     -0.30773823     -0.30647628     -0.30558213
      -0.30371764     -0.30328717     -0.30095033     -0.29912349
      -0.29778924     -0.29703173     -0.29559709     -0.29430819
      -0.29293156     -0.29014196     -0.28900698     -0.28780688
      -0.28680644     -0.28412534     -0.27898017     -0.27694993
      -0.27521615     -0.27261056     -0.27180697     -0.27058067
      -0.26926601     -0.26850299     -0.26814248     -0.26688806
      -0.26588755     -0.26504209     -0.26430303     -0.26334208
      -0.26182830     -0.26150556     -0.26078640     -0.26018763
      -0.25887972     -0.25827164     -0.25776679     -0.25645808
      -0.25606766     -0.25461286     -0.25354947     -0.25338442
      -0.25224618     -0.25201756     -0.25134804     -0.25082692
      -0.24987171     -0.24958209     -0.24901144     -0.24873782
      -0.24826404     -0.24698398     -0.24616662     -0.24537855
      -0.24526134     -0.24449921     -0.24400343     -0.24276045
      -0.24193102     -0.24165209     -0.24102060     -0.24026788
      -0.23982689     -0.23924517     -0.23780968     -0.23753972
      -0.23656187     -0.23508458     -0.23444798     -0.23365891
      -0.23335055     -0.23208739     -0.23182036     -0.22989310
      -0.22940249     -0.22801426     -0.22767828     -0.22715472
      -0.22297134     -0.22043136     -0.21918404     -0.21627816
 Fermi Energy [eV] :   -5.885228
  
  Eigenvalues of the occupied subspace spin            2
 ---------------------------------------------
      -1.02359203     -1.02134985     -1.02087180     -1.01815447
      -1.01567677     -1.01156470     -1.01003435     -1.00919556
      -1.00819645     -1.00559013     -1.00506976     -1.00231015
      -1.00111078     -1.00056368     -0.99967581     -0.99850938
      -0.99701714     -0.99591429     -0.99465257     -0.99256802
      -0.99208878     -0.99087379     -0.99035304     -0.98990067
      -0.98905820     -0.98820725     -0.98697250     -0.98607342
      -0.98497243     -0.98467650     -0.98395274     -0.98263108
      -0.98172307     -0.98063343     -0.97855784     -0.97731864
      -0.97638791     -0.97588242     -0.97488213     -0.97391350
      -0.97318157     -0.97240584     -0.97147929     -0.97111509
      -0.97043545     -0.96808792     -0.96602054     -0.96546255
      -0.96360796     -0.96311641     -0.96250434     -0.96039738
      -0.95765376     -0.95738733     -0.95632140     -0.95536303
      -0.95477879     -0.95150771     -0.95091749     -0.94826307
      -0.94344539     -0.94130813     -0.93748225     -0.89794115
      -0.50776067     -0.50502653     -0.50344498     -0.50106901
      -0.49986933     -0.49551720     -0.49318073     -0.49157749
      -0.49017414     -0.48670022     -0.48438877     -0.48372490
      -0.48291647     -0.48267737     -0.48210535     -0.48061266
      -0.47823220     -0.47805970     -0.47630144     -0.47521210
      -0.47446822     -0.47366975     -0.47271277     -0.47216238
      -0.47106479     -0.47023111     -0.46981272     -0.46860898
      -0.46819429     -0.46744548     -0.46698121     -0.46648221
      -0.46543151     -0.46347187     -0.46273340     -0.46255015
      -0.46152897     -0.46065784     -0.46029894     -0.45890810
      -0.45879348     -0.45779279     -0.45659739     -0.45475330
      -0.45441378     -0.45300163     -0.45188694     -0.45099170
      -0.44967245     -0.44868361     -0.44802877     -0.44683642
      -0.44547623     -0.44288401     -0.44237414     -0.43993695
      -0.43927129     -0.43807916     -0.43599434     -0.43179776
      -0.42934293     -0.42811963     -0.41926436     -0.39866596
      -0.39046327     -0.38467391     -0.38113344     -0.37918023
      -0.37682033     -0.37390091     -0.37148628     -0.36953254
      -0.36722988     -0.36605429     -0.36383593     -0.36344326
      -0.36095132     -0.35797142     -0.35683019     -0.35517546
      -0.35190762     -0.35105895     -0.35000664     -0.34717720
      -0.34685147     -0.34673824     -0.34538483     -0.34344686
      -0.34140668     -0.33907642     -0.33714664     -0.33411522
      -0.33302981     -0.33084441     -0.32902690     -0.32650366
      -0.32503646     -0.32420235     -0.32239512     -0.32131001
      -0.31891861     -0.31779581     -0.31633579     -0.31506217
      -0.31444160     -0.31360667     -0.31260144     -0.31055607
      -0.30767136     -0.30641163     -0.30552764     -0.30406923
      -0.30325187     -0.30094626     -0.29941821     -0.29772948
      -0.29689773     -0.29553114     -0.29423611     -0.29283729
      -0.29022831     -0.28912015     -0.28770329     -0.28425823
      -0.27924606     -0.27694323     -0.27529045     -0.27267622
      -0.27191188     -0.27062150     -0.26949926     -0.26851520
      -0.26829287     -0.26693260     -0.26596551     -0.26589429
      -0.26431252     -0.26342092     -0.26294645     -0.26178316
      -0.26150204     -0.26078883     -0.26013261     -0.25879011
      -0.25823330     -0.25760458     -0.25629788     -0.25586458
      -0.25445115     -0.25354316     -0.25314108     -0.25214874
      -0.25190482     -0.25133850     -0.25078746     -0.24985406
      -0.24950517     -0.24894519     -0.24838091     -0.24820192
      -0.24695448     -0.24616172     -0.24527743     -0.24523914
      -0.24443149     -0.24327741     -0.24249401     -0.24161426
      -0.24122620     -0.24100001     -0.24029454     -0.23968987
      -0.23911262     -0.23781897     -0.23725343     -0.23642548
      -0.23507928     -0.23445151     -0.23367970     -0.23268794
      -0.23190336     -0.23180250     -0.22942887     -0.22907556
      -0.22786747     -0.22728892     -0.22620406     -0.22290887
      -0.22035931     -0.21887665     -0.21565605
 Fermi Energy [eV] :   -5.868300
  
  Lowest Eigenvalues of the unoccupied subspace spin            1
 -----------------------------------------------------
  Reached convergence in           55  iterations 
       0.11477572
  
  Lowest Eigenvalues of the unoccupied subspace spin            2
 -----------------------------------------------------
  Reached convergence in           81  iterations 
       0.00613634
  
 HOMO - LUMO gap [eV] :    9.008434
 HOMO - LUMO gap [eV] :    6.035278

 ENERGY| Total FORCE_EVAL ( QS ) energy (a.u.):            -1099.723753489278579


 -------------------------------------------------------------------------------
 -                                                                             -
 -                                DBCSR STATISTICS                             -
 -                                                                             -
 -------------------------------------------------------------------------------
 COUNTER                                    TOTAL       BLAS       SMM       ACC
 flops    63 x     1 x    31                11718     100.0%      0.0%      0.0%
 flops    64 x     1 x    31                35712     100.0%      0.0%      0.0%
 flops    63 x     1 x    32                84672     100.0%      0.0%      0.0%
 flops    65 x     1 x    33               120120     100.0%      0.0%      0.0%
 flops   898 x     1 x    31               167028     100.0%      0.0%      0.0%
 flops    63 x     1 x   442               167076     100.0%      0.0%      0.0%
 flops     1 x     1 x   442               233376     100.0%      0.0%      0.0%
 flops    64 x     1 x    33               354816     100.0%      0.0%      0.0%
 flops   912 x     1 x    31               508896     100.0%      0.0%      0.0%
 flops    65 x     1 x    32               815360     100.0%      0.0%      0.0%
 flops    31 x    31 x   442               849524     100.0%      0.0%      0.0%
 flops    63 x     1 x   456              1206576     100.0%      0.0%      0.0%
 flops    65 x     1 x   442              1608880     100.0%      0.0%      0.0%
 flops   898 x     1 x    33              1659504     100.0%      0.0%      0.0%
 flops     1 x     1 x   456              1685376     100.0%      0.0%      0.0%
 flops    32 x    31 x   442              2630784     100.0%      0.0%      0.0%
 flops    31 x    32 x   442              3507712     100.0%      0.0%      0.0%
 flops    65 x    33 x   442              3792360     100.0%      0.0%      0.0%
 flops   912 x     1 x    33              5056128     100.0%      0.0%      0.0%
 flops    31 x    31 x   456              6135024     100.0%      0.0%      0.0%
 flops    14 x    31 x    31              6834632     100.0%      0.0%      0.0%
 flops    29 x    31 x    31              7134464     100.0%      0.0%      0.0%
 flops    64 x     1 x    32              8302592     100.0%      0.0%      0.0%
 flops    64 x    33 x   442             11202048     100.0%      0.0%      0.0%
 flops    65 x     1 x   456             11618880     100.0%      0.0%      0.0%
 flops    63 x    31 x    31             12350772     100.0%      0.0%      0.0%
 flops    64 x     1 x   442             14992640     100.0%      0.0%      0.0%
 flops    32 x    31 x   456             18998784     100.0%      0.0%      0.0%
 flops    14 x    32 x    31             24692864     100.0%      0.0%      0.0%
 flops    14 x    31 x    32             24692864     100.0%      0.0%      0.0%
 flops    31 x    32 x   456             25331712     100.0%      0.0%      0.0%
 flops    65 x    32 x   442             25742080     100.0%      0.0%      0.0%
 flops    29 x    32 x    31             25776128     100.0%      0.0%      0.0%
 flops    29 x    31 x    32             25776128     100.0%      0.0%      0.0%
 flops    65 x    33 x   456             27387360     100.0%      0.0%      0.0%
 flops   898 x     1 x    32             32241792     100.0%      0.0%      0.0%
 flops     2 x     2 x    31             34267648     100.0%      0.0%      0.0%
 flops    64 x    31 x    31             37640448     100.0%      0.0%      0.0%
 flops   898 x    33 x   442             52392912     100.0%      0.0%      0.0%
 flops   898 x     1 x   442             54774408     100.0%      0.0%      0.0%
 flops    32 x    32 x   442             57933824     100.0%      0.0%      0.0%
 flops     2 x     8 x    31             66950080     100.0%      0.0%      0.0%
 flops     8 x     2 x    31             67051264     100.0%      0.0%      0.0%
 flops    63 x    31 x   442             79416792     100.0%      0.0%      0.0%
 flops    64 x    33 x   456             80898048     100.0%      0.0%      0.0%
 flops    63 x    31 x    32             89244288     100.0%      0.0%      0.0%
 flops    63 x    32 x    31             89244288     100.0%      0.0%      0.0%
 flops   912 x     1 x    32             98233344     100.0%      0.0%      0.0%
 flops   898 x    31 x    31            101831404     100.0%      0.0%      0.0%
 flops     8 x     8 x    31            108131968     100.0%      0.0%      0.0%
 flops    64 x     1 x   456            108272640     100.0%      0.0%      0.0%
 flops   912 x    33 x   442            159629184     100.0%      0.0%      0.0%
 flops   912 x     1 x   442            166885056     100.0%      0.0%      0.0%
 flops    65 x    32 x   456            185902080     100.0%      0.0%      0.0%
 flops    64 x    31 x   442            242032128     100.0%      0.0%      0.0%
 flops   898 x    31 x   442            246087920     100.0%      0.0%      0.0%
 flops    64 x    32 x    31            271982592     100.0%      0.0%      0.0%
 flops    64 x    31 x    32            271982592     100.0%      0.0%      0.0%
 flops   912 x    31 x    31            310256928     100.0%      0.0%      0.0%
 flops   898 x    33 x   456            378366912     100.0%      0.0%      0.0%
 flops   898 x     1 x   456            395565408     100.0%      0.0%      0.0%
 flops    32 x    32 x   456            418381824     100.0%      0.0%      0.0%
 flops    14 x    32 x    32            466092032     100.0%      0.0%      0.0%
 flops    29 x    32 x    32            486539264     100.0%      0.0%      0.0%
 flops     2 x     2 x    32            530595840     100.0%      0.0%      0.0%
 flops    63 x    31 x   456            573525792     100.0%      0.0%      0.0%
 flops    63 x    32 x   442            573850368     100.0%      0.0%      0.0%
 flops    63 x    32 x    32            644861952     100.0%      0.0%      0.0%
 flops   898 x    32 x    31            735814016     100.0%      0.0%      0.0%
 flops   898 x    31 x    32            735814016     100.0%      0.0%      0.0%
 flops   912 x    31 x   442            749773440     100.0%      0.0%      0.0%
 flops     2 x     8 x    32           1036646400     100.0%      0.0%      0.0%
 flops     8 x     2 x    32           1038213120     100.0%      0.0%      0.0%
 flops   912 x    33 x   456           1152797184     100.0%      0.0%      0.0%
 flops   912 x     1 x   456           1205197056     100.0%      0.0%      0.0%
 flops     8 x     8 x    32           1674301440     100.0%      0.0%      0.0%
 flops    64 x    31 x   456           1747888128     100.0%      0.0%      0.0%
 flops    14 x     1 x    14           1750434840     100.0%      0.0%      0.0%
 flops   898 x    31 x   456           1777177920     100.0%      0.0%      0.0%
 flops    29 x     1 x    14           1837304280     100.0%      0.0%      0.0%
 flops    14 x     1 x    29           1837304280     100.0%      0.0%      0.0%
 flops    14 x    14 x    31           1863096032     100.0%      0.0%      0.0%
 flops    29 x     1 x    29           1921224132     100.0%      0.0%      0.0%
 flops    29 x    14 x    31           1938244000     100.0%      0.0%      0.0%
 flops    14 x    29 x    31           1940962576     100.0%      0.0%      0.0%
 flops    29 x    29 x    31           2059713284     100.0%      0.0%      0.0%
 flops   912 x    31 x    32           2241856512     100.0%      0.0%      0.0%
 flops   912 x    32 x    31           2241856512     100.0%      0.0%      0.0%
 flops    63 x    32 x   456           4144186368     100.0%      0.0%      0.0%
 flops    64 x    32 x   442           4605739008     100.0%      0.0%      0.0%
 flops   898 x    32 x   442           4775693312     100.0%      0.0%      0.0%
 flops   912 x    31 x   456           5414653440     100.0%      0.0%      0.0%
 flops    64 x    32 x    32           5522063360     100.0%      0.0%      0.0%
 flops    14 x    31 x    14           6807246600     100.0%      0.0%      0.0%
 flops    29 x    31 x    14           7145072200     100.0%      0.0%      0.0%
 flops    14 x    31 x    29           7145072200     100.0%      0.0%      0.0%
 flops    29 x    31 x    29           7471427180     100.0%      0.0%      0.0%
 flops   898 x    32 x    32          12261306368     100.0%      0.0%      0.0%
 flops   912 x    32 x   442          14550441984     100.0%      0.0%      0.0%
 flops    14 x    14 x    32          28847938560     100.0%      0.0%      0.0%
 flops    29 x    14 x    32          30011520000     100.0%      0.0%      0.0%
 flops    14 x    29 x    32          30053614080     100.0%      0.0%      0.0%
 flops    29 x    29 x    32          31892334720     100.0%      0.0%      0.0%
 flops    64 x    32 x   456          33261355008     100.0%      0.0%      0.0%
 flops   898 x    32 x   456          34488717312     100.0%      0.0%      0.0%
 flops   912 x    32 x    32          37357387776     100.0%      0.0%      0.0%
 flops    14 x    32 x    14         102190260480     100.0%      0.0%      0.0%
 flops   912 x    32 x   456         105079209984     100.0%      0.0%      0.0%
 flops    29 x    32 x    14         107261692160     100.0%      0.0%      0.0%
 flops    14 x    32 x    29         107261692160     100.0%      0.0%      0.0%
 flops    29 x    32 x    29         112160927104     100.0%      0.0%      0.0%
 flops inhomo. stacks                     2981228     100.0%      0.0%      0.0%
 flops total                       878.980679E+09     100.0%      0.0%      0.0%
 flops max/rank                     29.636929E+09     100.0%      0.0%      0.0%
 matmuls inhomo. stacks                      2314     100.0%      0.0%      0.0%
 matmuls total                           40405747     100.0%      0.0%      0.0%
 number of processed stacks                308834     100.0%      0.0%      0.0%
 average stack size                                   130.8       0.0       0.0
 marketing flops                     1.016067E+12
 -------------------------------------------------------------------------------
 # multiplications                           2523
 max memory usage/rank             493.924352E+06
 # max total images/rank                        2
 # max 3D layers                                1
 # MPI messages exchanged                 1695456
 MPI messages size (bytes):
  total size                       361.644556E+09
  min size                           0.000000E+00
  max size                           3.326976E+06
  average size                     213.302234E+03
 MPI breakdown and total messages size (bytes):
             size <=      128             1097096                    98728
       128 < size <=     8192              220024               1478933400
      8192 < size <=    32768               78400               1405381768
     32768 < size <=   131072              110208              12281081120
    131072 < size <=  4194304              189728             346481440256
   4194304 < size <= 16777216                   0                        0
  16777216 < size                               0                        0
 -------------------------------------------------------------------------------

 *** WARNING in dbcsr/mm/dbcsr_mm.F:268 :: Using a non-square number of ***
 *** MPI ranks might lead to poor performance.                          ***
 *** Used ranks: 32                                                     ***
 *** Suggested: 36 64                                                   ***

 -------------------------------------------------------------------------------
 
 MEMORY| Estimated peak process memory [MiB]                                 472

 -------------------------------------------------------------------------------
 -                                                                             -
 -                         MESSAGE PASSING PERFORMANCE                         -
 -                                                                             -
 -------------------------------------------------------------------------------

 ROUTINE             CALLS      AVE VOLUME [Bytes]
 MP_Group              283
 MP_Bcast             2613                 625598.
 MP_Allreduce        17428                    375.
 MP_Sync               330
 MP_Alltoall         12906                1092666.
 MP_ISendRecv         8990                  74698.
 MP_Wait            216576
 MP_comm_split         170
 MP_ISend           122812                 114974.
 MP_IRecv           122288                 116039.
 MP_Recv                14                 930304.
 MP_Memory          145340
 MP_Write_All            6                 614304.
 -------------------------------------------------------------------------------


 -------------------------------------------------------------------------------
 -                                                                             -
 -                           R E F E R E N C E S                               -
 -                                                                             -
 -------------------------------------------------------------------------------
 
 CP2K version 6.1, the CP2K developers group (2018).
 CP2K is freely available from https://www.cp2k.org/ .

 Schuett, Ole; Messmer, Peter; Hutter, Juerg; VandeVondele, Joost. 
 Electronic Structure Calculations on Graphics Processing Units, John Wiley & Sons, Ltd, 173-190 (2016). 
 GPU-Accelerated Sparse Matrix-Matrix Multiplication for Linear Scaling Density Functional Theory.
 http://dx.doi.org/10.1002/9781118670712.ch8


 Borstnik, U; VandeVondele, J; Weber, V; Hutter, J. 
 PARALLEL COMPUTING, 40 (5-6), 47-58 (2014). 
 Sparse matrix multiplication: The distributed block-compressed sparse
 row library.
 http://dx.doi.org/10.1016/j.parco.2014.03.012


 Hutter, J; Iannuzzi, M; Schiffmann, F; VandeVondele, J. 
 WILEY INTERDISCIPLINARY REVIEWS-COMPUTATIONAL MOLECULAR SCIENCE, 4 (1), 15-25 (2014). 
 CP2K: atomistic simulations of condensed matter systems.
 http://dx.doi.org/10.1002/wcms.1159


 Sabatini, R; Gorni, T; de Gironcoli, S. 
 Phys. Rev. B, 87 (4), 041108(R) (2013). 
 Nonlocal van der Waals density functional made simple and efficient.
 http://dx.doi.org/10.1103/PhysRevB.87.041108


 Guidon, M; Hutter, J; VandeVondele, J. 
 JOURNAL OF CHEMICAL THEORY AND COMPUTATION, 6 (8), 2348-2364 (2010). 
 Auxiliary Density Matrix Methods for Hartree-Fock Exchange Calculations.
 http://dx.doi.org/10.1021/ct1002225


 Guidon, M; Hutter, J; VandeVondele, J. 
 JOURNAL OF CHEMICAL THEORY AND COMPUTATION, 5 (11), 3010-3021 (2009). 
 Robust Periodic Hartree-Fock Exchange for Large-Scale Simulations Using
 Gaussian Basis Sets.
 http://dx.doi.org/10.1021/ct900494g


 Roman-Perez, G; Soler, JM. 
 Phys. Rev. Lett., 103 (9), 096102 (2009). 
 Efficient Implementation of a van der Waals Density Functional:
 Application to Double-Wall Carbon Nanotubes.
 http://dx.doi.org/10.1103/PhysRevLett.103.096102


 Guidon, M; Schiffmann, F; Hutter, J; VandeVondele, J. 
 JOURNAL OF CHEMICAL PHYSICS, 128 (21), 214104 (2008). 
 Ab initio molecular dynamics using hybrid density functionals.
 http://dx.doi.org/10.1063/1.2931945


 VandeVondele, J; Hutter, J. 
 JOURNAL OF CHEMICAL PHYSICS, 127 (11), 114105 (2007). 
 Gaussian basis sets for accurate calculations on molecular systems in
 gas and condensed phases.
 http://dx.doi.org/10.1063/1.2770708


 Krack, M. 
 THEORETICAL CHEMISTRY ACCOUNTS, 114 (1-3), 145-152 (2005). 
 Pseudopotentials for H to Kr optimized for gradient-corrected
 exchange-correlation functionals.
 http://dx.doi.org/10.1007/s00214-005-0655-y


 VandeVondele, J; Krack, M; Mohamed, F; Parrinello, M; Chassaing, T;
 Hutter, J. COMPUTER PHYSICS COMMUNICATIONS, 167 (2), 103-128 (2005). 
 QUICKSTEP: Fast and accurate density functional calculations using a
 mixed Gaussian and plane waves approach.
 http://dx.doi.org/10.1016/j.cpc.2004.12.014


 Frigo, M; Johnson, SG. 
 PROCEEDINGS OF THE IEEE, 93 (2), 216-231 (2005). 
 The design and implementation of FFTW3.
 http://dx.doi.org/10.1109/JPROC.2004.840301


 Heyd, J; Scuseria, GE. 
 JOURNAL OF CHEMICAL PHYSICS, 120 (16), 7274-7280 (2004). 
 Assessment and validation of a screened Coulomb hybrid density
 functional.
 http://dx.doi.org/10.1063/1.1668634


 VandeVondele, J; Hutter, J. 
 JOURNAL OF CHEMICAL PHYSICS, 118 (10), 4365-4369 (2003). 
 An efficient orbital transformation method for electronic structure
 calculations.
 http://dx.doi.org/10.1063/1.1543154


 Hartwigsen, C; Goedecker, S; Hutter, J. 
 PHYSICAL REVIEW B, 58 (7), 3641-3662 (1998). 
 Relativistic separable dual-space Gaussian pseudopotentials from H to Rn.
 http://dx.doi.org/10.1103/PhysRevB.58.3641


 Lippert, G; Hutter, J; Parrinello, M. 
 MOLECULAR PHYSICS, 92 (3), 477-487 (1997). 
 A hybrid Gaussian and plane wave density functional scheme.
 http://dx.doi.org/10.1080/002689797170220


 Perdew, JP; Burke, K; Ernzerhof, M. 
 PHYSICAL REVIEW LETTERS, 77 (18), 3865-3868 (1996). 
 Generalized gradient approximation made simple.
 http://dx.doi.org/10.1103/PhysRevLett.77.3865


 Goedecker, S; Teter, M; Hutter, J. 
 PHYSICAL REVIEW B, 54 (3), 1703-1710 (1996). 
 Separable dual-space Gaussian pseudopotentials.
 http://dx.doi.org/10.1103/PhysRevB.54.1703


 -------------------------------------------------------------------------------
 -                                                                             -
 -                                T I M I N G                                  -
 -                                                                             -
 -------------------------------------------------------------------------------
 SUBROUTINE                       CALLS  ASD         SELF TIME        TOTAL TIME
                                MAXIMUM       AVERAGE  MAXIMUM  AVERAGE  MAXIMUM
 CP2K                                 1  1.0    0.084    0.090  708.000  708.001
 qs_energies                          1  2.0    0.000    0.000  706.917  706.917
 scf_env_do_scf                       1  3.0    0.000    0.000  402.870  402.870
 dbcsr_multiply_generic            2523  8.3    0.160    0.163  387.368  387.699
 scf_env_do_scf_inner_loop           17  4.0    0.001    0.001  324.056  324.065
 scf_post_calculation_gpw             1  3.0    0.000    0.000  301.482  301.482
 qs_ks_update_qs_env                 18  5.0    0.000    0.000  300.944  300.945
 rebuild_ks_matrix                   17  6.0    0.000    0.000  300.885  300.887
 qs_ks_build_kohn_sham_matrix        17  7.0    0.003    0.003  300.885  300.886
 make_lumo                            1  4.0    0.000    0.000  299.059  299.059
 ot_eigensolver                       2  5.0    0.003    0.003  298.469  298.471
 multiply_cannon                   2523  9.3    0.445    0.459  205.105  206.168
 mp_deallocate_d                  41113 12.5  191.600  192.334  191.600  192.334
 ot_mini                            153  6.2    0.001    0.001  184.588  184.595
 hfx_ks_matrix                       17  8.0    0.001    0.001  172.027  172.078
 integrate_four_center               17  9.0    0.096    0.323  171.971  172.019
 qs_ot_get_derivative                87  7.4    0.001    0.001  165.359  165.376
 integrate_four_center_main          17 10.0    0.006    0.006  161.514  164.356
 integrate_four_center_bin         1088 11.0  161.508  164.350  161.508  164.350
 dbcsr_destroy                    35508 10.2    0.127    0.129  152.681  153.017
 mp_deallocate_i                  31788 12.5  144.408  145.851  144.408  145.851
 make_m2s                          5046  9.3    0.155    0.159  134.587  135.492
 dbcsr_data_release              172497 12.0    0.496    0.562  113.295  113.495
 qs_ot_get_derivative_diag           62  8.1    0.002    0.002   90.784   90.797
 qs_vxc_create                       34  8.0    0.002    0.003   88.898   88.923
 make_images                       5046 10.3    0.249    0.262   83.856   84.805
 qs_ot_get_p                        177  6.4    0.001    0.001   79.301   79.659
 init_scf_loop                        1  4.0    0.000    0.000   78.801   78.801
 qs_scf_new_mos                      17  5.0    0.000    0.000   78.187   78.191
 qs_scf_loop_do_ot                   17  6.0    0.000    0.000   78.187   78.191
 xc_rho_set_and_dset_create          34 10.0    0.297    0.315   69.643   74.619
 setup_buffer_matrices             5046 10.3    0.099    0.101   73.345   73.418
 ot_scf_mini                         17  7.0    0.001    0.001   72.065   72.069
 dbcsr_create_new                 36837 11.0    0.198    0.202   70.835   71.370
 dbcsr_make_index_exist           36837 12.0    0.100    0.103   69.447   69.978
 xc_functional_eval                  85 11.0    0.001    0.001   55.916   60.852
 xc_vxc_pw_create                    18  9.0    0.306    0.339   52.165   52.165
 dbcsr_make_images_dense           4320 10.7    0.076    0.078   50.504   50.604
 qs_ot_get_orbitals                 175  6.4    0.001    0.001   50.348   50.379
 pw_transfer                       1779 10.0    0.108    0.128   36.495   41.589
 fft_wrap_pw1pw2                   1600 11.0    0.013    0.015   36.138   41.237
 dbcsr_special_finalize            7569 11.3    0.029    0.030   37.526   38.544
 qs_ot_p2m_diag                     132  7.1    0.004    0.004   37.524   37.558
 fft_wrap_pw1pw2_400                551 12.2    2.978    3.523   32.021   37.036
 buffer_matrices_ensure_size       5046 10.3    0.725    0.753   34.276   34.887
 qs_ot_get_derivative_taylor         25  9.3    0.001    0.001   34.120   34.127
 quick_finalize                    7436 12.4    0.036    0.042   32.859   33.895
 xpbe_hole_t_c_lr_lsd_eval           34 12.0   31.135   33.541   31.135   33.541
 calculate_rho_elec                  70  7.5   15.584   15.852   33.018   33.025
 fft3d_ps                          1600 13.0   14.301   14.770   27.265   32.421
 xc_exc_calc                         16  9.0    0.029    0.030   31.025   31.025
 dbcsr_switch_data_area           19927 12.3    0.025    0.026   29.841   30.020
 mp_waitall_1                    211714 11.8   26.224   27.178   26.224   27.178
 xwpbe_lsd_eval                      34 12.0   21.504   25.055   21.504   25.055
 qs_rho_update_rho                   18  5.0    0.000    0.000   21.351   21.361
 multiply_cannon_metrocomm3       20184 10.3    0.083    0.086   19.717   20.632
 apply_preconditioner_dbcsr          94  8.4    0.000    0.000   20.481   20.560
 apply_single                        94  9.4    0.000    0.000   20.480   20.560
 admm_mo_calc_rho_aux                17  8.0    0.000    0.000   19.510   19.536
 ot_new_cg_direction                 78  7.2    0.001    0.001   19.127   19.136
 density_rs2pw                       70  8.5    0.005    0.005   15.724   16.025
 mp_alltoall_z22v                  1600 15.0    9.091   15.575    9.091   15.575
 sum_up_and_integrate                 9  8.0    0.121    0.128   14.911   14.917
 integrate_v_rspace                  36  9.0    7.369    7.578   14.787   14.802
 -------------------------------------------------------------------------------

 The number of warnings for this run is : 2
 
 -------------------------------------------------------------------------------
  **** **** ******  **  PROGRAM ENDED AT                 2024-03-14 23:54:14.373
 ***** ** ***  *** **   PROGRAM RAN ON                                      tc22
 **    ****   ******    PROGRAM RAN BY                                  fambrosi
 ***** **    ** ** **   PROGRAM PROCESS ID                                 13853
  **** **  *******  **  PROGRAM STOPPED IN          /scratch/fambrosi.55038.tccw
