 DBCSR| Multiplication driver                                               BLAS
 DBCSR| Multrec recursion limit                                              512
 DBCSR| Multiplication stack size                                           1000
 DBCSR| Maximum elements for images                                    UNLIMITED
 DBCSR| Multiplicative factor virtual images                                   1
 DBCSR| Multiplication size stacks                                             3
 DBCSR| Number of 3D layers                                               SINGLE
 DBCSR| Use MPI memory allocation                                              T
 DBCSR| Use RMA algorithm                                                      F
 DBCSR| Use Communication thread                                               T
 DBCSR| Communication thread load                                             87


  **** **** ******  **  PROGRAM STARTED AT               2024-03-14 22:47:12.277
 ***** ** ***  *** **   PROGRAM STARTED ON                                  tc16
 **    ****   ******    PROGRAM STARTED BY                              fambrosi
 ***** **    ** ** **   PROGRAM PROCESS ID                                  5018
  **** **  *******  **  PROGRAM STARTED IN          /scratch/fambrosi.55023.tccw

 CP2K| version string:                                          CP2K version 6.1
 CP2K| source code revision number:                                    svn:18464
 CP2K| cp2kflags: libint fftw3 libxc parallel mpi3 scalapack has_no_shared_glibc
 CP2K|             libderiv_max_am1=5 libint_max_am=6 max_contr=4 mkl
 CP2K| is freely available from                            https://www.cp2k.org/
 CP2K| Program compiled at                         Mon Jun 25 12:26:44 CEST 2018
 CP2K| Program compiled on                                                  tccw
 CP2K| Program compiled for                     Linux-x86-64-intel.MPI-OPENMP.O2
 CP2K| Data directory path                           /home/edoardo/cp2k-6.1/data
 CP2K| Input file name        /home/fambrosi/hydroxyl/test-koopman/radical/gga2/
 
 GLOBAL| Force Environment number                                              1
 GLOBAL| Basis set file name               /usr/local/cp2k-6.1/data/BASIS_MOLOPT
 GLOBAL| Potential file name             /usr/local/cp2k-6.1/data/GTH_POTENTIALS
 GLOBAL| MM Potential file name                                     MM_POTENTIAL
 GLOBAL| Coordinate file name                                      __STD_INPUT__
 GLOBAL| Method name                                                        CP2K
 GLOBAL| Project name                                               water+I-.dyn
 GLOBAL| Preferred FFT library                                             FFTW3
 GLOBAL| Preferred diagonalization lib.                                       SL
 GLOBAL| Run type                                                         ENERGY
 GLOBAL| All-to-all communication in single precision                          F
 GLOBAL| FFTs using library dependent lengths                                  T
 GLOBAL| Global print level                                                  LOW
 GLOBAL| Total number of message passing processes                            64
 GLOBAL| Number of threads for this process                                    1
 GLOBAL| This output is from process                                           0
 GLOBAL| CPU model name :  Intel(R) Xeon(R) CPU E5-2683 v4 @ 2.10GHz

 MEMORY| system memory details [Kb]
 MEMORY|                        rank 0           min           max       average
 MEMORY| MemTotal            264564496     264564376     264564496     264564436
 MEMORY| MemFree              87811576      87811576     177635716     132723646
 MEMORY| Buffers                231448        231448        260360        245904
 MEMORY| Cached              169166968      80709096     169166968     124938032
 MEMORY| Slab                  3771184       2376760       3771184       3073972
 MEMORY| SReclaimable          3696000       2300400       3696000       2998200
 MEMORY| MemLikelyFree       260905992     260905572     260905992     260905782

 
 GENERATE|  Preliminary Number of Bonds generated:                             0
 GENERATE|  Achieved consistency in connectivity generation.

 *******************************************************************************
 *******************************************************************************
 **                                                                           **
 **     #####                         ##              ##                      **
 **    ##   ##            ##          ##              ##                      **
 **   ##     ##                       ##            ######                    **
 **   ##     ##  ##   ##  ##   #####  ##  ##   ####   ##    #####    #####    **
 **   ##     ##  ##   ##  ##  ##      ## ##   ##      ##   ##   ##  ##   ##   **
 **   ##  ## ##  ##   ##  ##  ##      ####     ###    ##   ######   ######    **
 **    ##  ###   ##   ##  ##  ##      ## ##      ##   ##   ##       ##        **
 **     #######   #####   ##   #####  ##  ##  ####    ##    #####   ##        **
 **           ##                                                    ##        **
 **                                                                           **
 **                                                ... make the atoms dance   **
 **                                                                           **
 **            Copyright (C) by CP2K developers group (2000 - 2018)           **
 **                                                                           **
 *******************************************************************************


 TOTAL NUMBERS AND MAXIMUM NUMBERS

  Total number of            - Atomic kinds:                                   2
                             - Atoms:                                        191
                             - Shell sets:                                  1146
                             - Shells:                                      1338
                             - Primitive Cartesian functions:               1528
                             - Cartesian basis functions:                   4081
                             - Spherical basis functions:                   3634

  Maximum angular momentum of- Orbital basis functions:                        3
                             - Local part of the GTH pseudopotential:          2
                             - Non-local part of the GTH pseudopotential:      0


 SCF PARAMETERS         Density guess:                                   RESTART
                        --------------------------------------------------------
                        max_scf:                                              50
                        max_scf_history:                                       0
                        max_diis:                                              4
                        --------------------------------------------------------
                        eps_scf:                                        1.00E-05
                        eps_scf_history:                                0.00E+00
                        eps_diis:                                       1.00E-01
                        eps_eigval:                                     1.00E-05
                        --------------------------------------------------------
                        level_shift [a.u.]:                                 0.00
                        --------------------------------------------------------
                        Outer loop SCF in use 
                        No variables optimised in outer loop
                        eps_scf                                         1.00E-05
                        max_scf                                               50
                        No outer loop optimization
                        step_size                                       5.00E-01

 Spin 1

 Number of electrons:                                                        256
 Number of occupied orbitals:                                                256
 Number of molecular orbitals:                                               256

 Spin 2

 Number of electrons:                                                        255
 Number of occupied orbitals:                                                255
 Number of molecular orbitals:                                               255

 Number of orbital functions:                                               3634
 Number of independent orbital functions:                                   3634

 Extrapolation method: initial_guess

 *** WARNING in qs_initial_guess.F:263 :: User requested to restart the    ***
 *** wavefunction from the file named: water+I-.dyn-RESTART.wfn. This file ***
 *** does not exist. Please check the existence of the file or change      ***
 *** properly the value of the keyword WFN_RESTART_FILE_NAME. Calculation  ***
 *** continues using ATOMIC GUESS.                                         ***



 SCF WAVEFUNCTION OPTIMIZATION

  ----------------------------------- OT ---------------------------------------
  Minimizer      : DIIS                : direct inversion
                                         in the iterative subspace
                                         using   7 DIIS vectors
                                         safer DIIS on
  Preconditioner : FULL_SINGLE_INVERSE : inversion of 
                                         H + eS - 2*(Sc)(c^T*H*c+const)(Sc)^T
  Precond_solver : DEFAULT
  stepsize       :    0.08000000                  energy_gap     :    0.08000000
  eps_taylor     :   0.10000E-15                  max_taylor     :             4
  ----------------------------------- OT ---------------------------------------

  Step     Update method      Time    Convergence         Total energy    Change
  ------------------------------------------------------------------------------
     1 OT DIIS     0.80E-01    8.0     0.00948944     -1061.2968174047 -1.06E+03
     2 OT DIIS     0.80E-01    7.6     0.00774459     -1073.1100331580 -1.18E+01
     3 OT DIIS     0.80E-01    7.8     0.00625988     -1085.5329488395 -1.24E+01
     4 OT DIIS     0.80E-01    7.8     0.00452993     -1095.2884884468 -9.76E+00
     5 OT DIIS     0.80E-01    7.8     0.00277082     -1101.1313217143 -5.84E+00
     6 OT DIIS     0.80E-01    7.6     0.00183525     -1103.1889121058 -2.06E+00
     7 OT DIIS     0.80E-01    7.8     0.00124838     -1104.0464026355 -8.57E-01
     8 OT DIIS     0.80E-01    7.6     0.00091709     -1104.5184812202 -4.72E-01
     9 OT DIIS     0.80E-01    7.8     0.00072057     -1104.6381081307 -1.20E-01
    10 OT DIIS     0.80E-01    7.7     0.00062629     -1104.8080424363 -1.70E-01
    11 OT SD       0.80E-01    7.8     0.00060602     -1104.8803499507 -7.23E-02
    12 OT SD       0.80E-01    8.1     0.00063218     -1104.9359618616 -5.56E-02
    13 OT SD       0.80E-01    8.0     0.00065744     -1104.9964948052 -6.05E-02
    14 OT DIIS     0.80E-01    7.9     0.00067183     -1105.0614483169 -6.50E-02
    15 OT SD       0.80E-01    7.9     0.00078870     -1105.0497155823  1.17E-02
    16 OT SD       0.80E-01    7.7     0.00074944     -1105.1390306322 -8.93E-02
    17 OT SD       0.80E-01    7.7     0.00070133     -1105.2198175512 -8.08E-02
    18 OT DIIS     0.80E-01    7.6     0.00063522     -1105.2894316087 -6.96E-02
    19 OT SD       0.80E-01    7.7     0.00079086     -1105.3256779937 -3.62E-02
    20 OT SD       0.80E-01    7.7     0.00056881     -1105.4035654079 -7.79E-02
    21 OT DIIS     0.80E-01    7.7     0.00046055     -1105.4465889025 -4.30E-02
    22 OT DIIS     0.80E-01    7.8     0.00046356     -1105.5306080907 -8.40E-02
    23 OT DIIS     0.80E-01    7.6     0.00039627     -1105.5620025546 -3.14E-02
    24 OT DIIS     0.80E-01    7.7     0.00030896     -1105.5753896565 -1.34E-02
    25 OT DIIS     0.80E-01    7.7     0.00022011     -1105.6092142309 -3.38E-02
    26 OT DIIS     0.80E-01    7.9     0.00011304     -1105.6339263260 -2.47E-02
    27 OT DIIS     0.80E-01    8.1     0.00008522     -1105.6416047545 -7.68E-03
    28 OT DIIS     0.80E-01    8.1     0.00006574     -1105.6460478663 -4.44E-03
    29 OT DIIS     0.80E-01    7.9     0.00006785     -1105.6481064719 -2.06E-03
    30 OT DIIS     0.80E-01    7.7     0.00004490     -1105.6497261452 -1.62E-03
    31 OT DIIS     0.80E-01    7.7     0.00003797     -1105.6510365485 -1.31E-03
    32 OT DIIS     0.80E-01    7.8     0.00003215     -1105.6520888168 -1.05E-03
    33 OT DIIS     0.80E-01    7.7     0.00002555     -1105.6527366447 -6.48E-04
    34 OT DIIS     0.80E-01    7.7     0.00002298     -1105.6531632877 -4.27E-04
    35 OT DIIS     0.80E-01    7.8     0.00001986     -1105.6537304083 -5.67E-04
    36 OT DIIS     0.80E-01    7.7     0.00001804     -1105.6540990780 -3.69E-04
    37 OT DIIS     0.80E-01    7.7     0.00001625     -1105.6544497129 -3.51E-04
    38 OT DIIS     0.80E-01    7.7     0.00001439     -1105.6547915517 -3.42E-04
    39 OT DIIS     0.80E-01    7.7     0.00001299     -1105.6550657873 -2.74E-04
    40 OT DIIS     0.80E-01    7.8     0.00001187     -1105.6552600095 -1.94E-04
    41 OT DIIS     0.80E-01    8.1     0.00001007     -1105.6555457471 -2.86E-04
    42 OT DIIS     0.80E-01    7.7     0.00000942     -1105.6556437441 -9.80E-05

  *** SCF run converged in    42 steps ***


  Electronic density on regular grids:       -510.9999999999        0.0000000001
  Core density on regular grids:              510.9999999998       -0.0000000002
  Total charge density on r-space grids:       -0.0000000001
  Total charge density g-space grids:          -0.0000000001

  Overlap energy of the core charge distribution:               0.00000304316890
  Self energy of the core charge distribution:              -2836.80744583234036
  Core Hamiltonian energy:                                    832.79831789760829
  Hartree energy:                                            1173.42454755035965
  Exchange-correlation energy:                               -276.03939804261768
  Dispersion energy:                                            0.96833163976325

  Total energy:                                             -1105.65564374405812

  outer SCF iter =    1 RMS gradient =   0.94E-05 energy =      -1105.6556437441
  outer SCF loop converged in   1 iterations or   42 steps


  Integrated absolute spin density  :                               1.0825749916
  Ideal and single determinant S**2 :                    0.750000       0.753009

 ENERGY| Total FORCE_EVAL ( QS ) energy (a.u.):            -1105.655643744058125


 -------------------------------------------------------------------------------
 -                                                                             -
 -                                DBCSR STATISTICS                             -
 -                                                                             -
 -------------------------------------------------------------------------------
 COUNTER                                    TOTAL       BLAS       SMM       ACC
 flops    14 x    31 x    31              6834632     100.0%      0.0%      0.0%
 flops    29 x    31 x    31              7134464     100.0%      0.0%      0.0%
 flops    31 x    31 x    31             22164504     100.0%      0.0%      0.0%
 flops    14 x    32 x    31             24692864     100.0%      0.0%      0.0%
 flops    14 x    31 x    32             24692864     100.0%      0.0%      0.0%
 flops    29 x    32 x    31             25776128     100.0%      0.0%      0.0%
 flops    29 x    31 x    32             25776128     100.0%      0.0%      0.0%
 flops    31 x    31 x   442            142720032     100.0%      0.0%      0.0%
 flops    31 x    31 x    32            160156416     100.0%      0.0%      0.0%
 flops    31 x    32 x    31            160156416     100.0%      0.0%      0.0%
 flops    32 x    31 x    31            160156416     100.0%      0.0%      0.0%
 flops   442 x    31 x    31            176700992     100.0%      0.0%      0.0%
 flops    14 x    32 x    32            466092032     100.0%      0.0%      0.0%
 flops    29 x    32 x    32            486539264     100.0%      0.0%      0.0%
 flops   442 x    31 x   442            520840424     100.0%      0.0%      0.0%
 flops    32 x    31 x   442           1027759616     100.0%      0.0%      0.0%
 flops    31 x    32 x   442           1028636544     100.0%      0.0%      0.0%
 flops    31 x    31 x   456           1030684032     100.0%      0.0%      0.0%
 flops    32 x    32 x    31           1157259264     100.0%      0.0%      0.0%
 flops    31 x    32 x    32           1157259264     100.0%      0.0%      0.0%
 flops    32 x    31 x    32           1157259264     100.0%      0.0%      0.0%
 flops   456 x    31 x    31           1276084992     100.0%      0.0%      0.0%
 flops   442 x    32 x    31           1276807168     100.0%      0.0%      0.0%
 flops   442 x    31 x    32           1276807168     100.0%      0.0%      0.0%
 flops   456 x    31 x   442           3761363424     100.0%      0.0%      0.0%
 flops   442 x    31 x   456           3761363424     100.0%      0.0%      0.0%
 flops    14 x    14 x    31           4311456688     100.0%      0.0%      0.0%
 flops    29 x    14 x    31           4489249996     100.0%      0.0%      0.0%
 flops    14 x    29 x    31           4491414788     100.0%      0.0%      0.0%
 flops    29 x    29 x    31           4763067416     100.0%      0.0%      0.0%
 flops    32 x    31 x   456           7422191616     100.0%      0.0%      0.0%
 flops    31 x    32 x   456           7428524544     100.0%      0.0%      0.0%
 flops   442 x    32 x   442           8064625920     100.0%      0.0%      0.0%
 flops   456 x    31 x    32           9220743168     100.0%      0.0%      0.0%
 flops   456 x    32 x    31           9220743168     100.0%      0.0%      0.0%
 flops    32 x    32 x   442          17140264960     100.0%      0.0%      0.0%
 flops    14 x    31 x    14          17689994504     100.0%      0.0%      0.0%
 flops    29 x    31 x    14          18572606416     100.0%      0.0%      0.0%
 flops    14 x    31 x    29          18572606416     100.0%      0.0%      0.0%
 flops    29 x    31 x    29          19397241136     100.0%      0.0%      0.0%
 flops    32 x    32 x    32          20844380160     100.0%      0.0%      0.0%
 flops   442 x    32 x    32          21276196864     100.0%      0.0%      0.0%
 flops   456 x    31 x   456          27163511424     100.0%      0.0%      0.0%
 flops   442 x    32 x   456          58240465920     100.0%      0.0%      0.0%
 flops   456 x    32 x   442          58240465920     100.0%      0.0%      0.0%
 flops    14 x    14 x    32          66758039040     100.0%      0.0%      0.0%
 flops    29 x    14 x    32          69510967680     100.0%      0.0%      0.0%
 flops    14 x    29 x    32          69544487040     100.0%      0.0%      0.0%
 flops    29 x    29 x    32          73750721280     100.0%      0.0%      0.0%
 flops    32 x    32 x   456         123782184960     100.0%      0.0%      0.0%
 flops   456 x    32 x    32         153650724864     100.0%      0.0%      0.0%
 flops    14 x    32 x    14         272304261376     100.0%      0.0%      0.0%
 flops    29 x    32 x    14         285890415104     100.0%      0.0%      0.0%
 flops    14 x    32 x    29         285890415104     100.0%      0.0%      0.0%
 flops    29 x    32 x    29         298584118784     100.0%      0.0%      0.0%
 flops   456 x    32 x   456         420596305920     100.0%      0.0%      0.0%
 flops inhomo. stacks                           0       0.0%      0.0%      0.0%
 flops total                         2.477134E+12     100.0%      0.0%      0.0%
 flops max/rank                     39.159652E+09     100.0%      0.0%      0.0%
 matmuls inhomo. stacks                         0       0.0%      0.0%      0.0%
 matmuls total                           66247512     100.0%      0.0%      0.0%
 number of processed stacks               1362752     100.0%      0.0%      0.0%
 average stack size                                    48.6       0.0       0.0
 marketing flops                     2.780092E+12
 -------------------------------------------------------------------------------
 # multiplications                           1857
 max memory usage/rank             275.869696E+06
 # max total images/rank                        1
 # max 3D layers                                1
 # MPI messages exchanged                 1663872
 MPI messages size (bytes):
  total size                       283.742306E+09
  min size                           0.000000E+00
  max size                           1.663488E+06
  average size                     170.531328E+03
 MPI breakdown and total messages size (bytes):
             size <=      128                2576                        0
       128 < size <=     8192              854000               6968693424
      8192 < size <=    32768                   0                        0
     32768 < size <=   131072              687680              79812640768
    131072 < size <=  4194304              119616             196960411872
   4194304 < size <= 16777216                   0                        0
  16777216 < size                               0                        0
 -------------------------------------------------------------------------------
 
 MEMORY| Estimated peak process memory [MiB]                                 264

 -------------------------------------------------------------------------------
 -                                                                             -
 -                         MESSAGE PASSING PERFORMANCE                         -
 -                                                                             -
 -------------------------------------------------------------------------------

 ROUTINE             CALLS      AVE VOLUME [Bytes]
 MP_Group              113
 MP_Bcast             6484                 150066.
 MP_Allreduce        26404                    262.
 MP_Sync                88
 MP_Alltoall         10426                1192571.
 MP_ISendRecv        21420                  47520.
 MP_Wait            178846
 MP_comm_split          84
 MP_ISend            66918                  98678.
 MP_IRecv            66918                  98896.
 MP_Recv                42                 930304.
 MP_Memory           74620
 -------------------------------------------------------------------------------


 -------------------------------------------------------------------------------
 -                                                                             -
 -                           R E F E R E N C E S                               -
 -                                                                             -
 -------------------------------------------------------------------------------
 
 CP2K version 6.1, the CP2K developers group (2018).
 CP2K is freely available from https://www.cp2k.org/ .

 Lehtola, S; Steigemann, C; Oliveira, MJT; Marques, MAL. 
 SoftwareX, 7, 1-5 (2018). 
 Recent developments in libxc - A comprehensive library of functionals
 for density functional theory.
 http://dx.doi.org/10.1016/j.softx.2017.11.002


 Schuett, Ole; Messmer, Peter; Hutter, Juerg; VandeVondele, Joost. 
 Electronic Structure Calculations on Graphics Processing Units, John Wiley & Sons, Ltd, 173-190 (2016). 
 GPU-Accelerated Sparse Matrix-Matrix Multiplication for Linear Scaling Density Functional Theory.
 http://dx.doi.org/10.1002/9781118670712.ch8


 Borstnik, U; VandeVondele, J; Weber, V; Hutter, J. 
 PARALLEL COMPUTING, 40 (5-6), 47-58 (2014). 
 Sparse matrix multiplication: The distributed block-compressed sparse
 row library.
 http://dx.doi.org/10.1016/j.parco.2014.03.012


 Hutter, J; Iannuzzi, M; Schiffmann, F; VandeVondele, J. 
 WILEY INTERDISCIPLINARY REVIEWS-COMPUTATIONAL MOLECULAR SCIENCE, 4 (1), 15-25 (2014). 
 CP2K: atomistic simulations of condensed matter systems.
 http://dx.doi.org/10.1002/wcms.1159


 Sabatini, R; Gorni, T; de Gironcoli, S. 
 Phys. Rev. B, 87 (4), 041108(R) (2013). 
 Nonlocal van der Waals density functional made simple and efficient.
 http://dx.doi.org/10.1103/PhysRevB.87.041108


 Marques, MAL; Oliveira, MJT; Burnus, T. 
 COMPUTER PHYSICS COMMUNICATIONS, 183 (10), 2272-2281 (2012). 
 LIBXC: A library of exchange and correlation functionals for density
 functional theory.
 http://dx.doi.org/10.1016/j.cpc.2012.05.007


 Roman-Perez, G; Soler, JM. 
 Phys. Rev. Lett., 103 (9), 096102 (2009). 
 Efficient Implementation of a van der Waals Density Functional:
 Application to Double-Wall Carbon Nanotubes.
 http://dx.doi.org/10.1103/PhysRevLett.103.096102


 VandeVondele, J; Hutter, J. 
 JOURNAL OF CHEMICAL PHYSICS, 127 (11), 114105 (2007). 
 Gaussian basis sets for accurate calculations on molecular systems in
 gas and condensed phases.
 http://dx.doi.org/10.1063/1.2770708


 Krack, M. 
 THEORETICAL CHEMISTRY ACCOUNTS, 114 (1-3), 145-152 (2005). 
 Pseudopotentials for H to Kr optimized for gradient-corrected
 exchange-correlation functionals.
 http://dx.doi.org/10.1007/s00214-005-0655-y


 VandeVondele, J; Krack, M; Mohamed, F; Parrinello, M; Chassaing, T;
 Hutter, J. COMPUTER PHYSICS COMMUNICATIONS, 167 (2), 103-128 (2005). 
 QUICKSTEP: Fast and accurate density functional calculations using a
 mixed Gaussian and plane waves approach.
 http://dx.doi.org/10.1016/j.cpc.2004.12.014


 Frigo, M; Johnson, SG. 
 PROCEEDINGS OF THE IEEE, 93 (2), 216-231 (2005). 
 The design and implementation of FFTW3.
 http://dx.doi.org/10.1109/JPROC.2004.840301


 VandeVondele, J; Hutter, J. 
 JOURNAL OF CHEMICAL PHYSICS, 118 (10), 4365-4369 (2003). 
 An efficient orbital transformation method for electronic structure
 calculations.
 http://dx.doi.org/10.1063/1.1543154


 Hartwigsen, C; Goedecker, S; Hutter, J. 
 PHYSICAL REVIEW B, 58 (7), 3641-3662 (1998). 
 Relativistic separable dual-space Gaussian pseudopotentials from H to Rn.
 http://dx.doi.org/10.1103/PhysRevB.58.3641


 Lippert, G; Hutter, J; Parrinello, M. 
 MOLECULAR PHYSICS, 92 (3), 477-487 (1997). 
 A hybrid Gaussian and plane wave density functional scheme.
 http://dx.doi.org/10.1080/002689797170220


 Goedecker, S; Teter, M; Hutter, J. 
 PHYSICAL REVIEW B, 54 (3), 1703-1710 (1996). 
 Separable dual-space Gaussian pseudopotentials.
 http://dx.doi.org/10.1103/PhysRevB.54.1703


 -------------------------------------------------------------------------------
 -                                                                             -
 -                                T I M I N G                                  -
 -                                                                             -
 -------------------------------------------------------------------------------
 SUBROUTINE                       CALLS  ASD         SELF TIME        TOTAL TIME
                                MAXIMUM       AVERAGE  MAXIMUM  AVERAGE  MAXIMUM
 CP2K                                 1  1.0    0.046    0.053  330.755  330.756
 qs_energies                          1  2.0    0.000    0.000  330.027  330.027
 scf_env_do_scf                       1  3.0    0.000    0.000  327.966  327.966
 scf_env_do_scf_inner_loop           42  4.0    0.002    0.003  323.429  323.440
 dbcsr_multiply_generic            1857 10.1    0.111    0.114  220.578  220.956
 qs_scf_new_mos                      42  5.0    0.000    0.000  211.744  211.787
 qs_scf_loop_do_ot                   42  6.0    0.000    0.001  211.743  211.787
 ot_scf_mini                         42  7.0    0.002    0.003  200.904  200.959
 ot_mini                             42  8.0    0.001    0.001  138.679  138.716
 qs_ot_get_derivative                84  9.0    0.001    0.001  125.508  125.665
 multiply_cannon                   1857 11.1    0.281    0.288  110.527  111.636
 mp_deallocate_d                  21496 14.3  104.013  108.132  104.013  108.132
 qs_ot_get_derivative_diag           82 10.0    0.002    0.003   95.369   95.481
 dbcsr_destroy                    20798 11.8    0.070    0.072   84.425   87.725
 qs_ks_update_qs_env                 43  5.0    0.001    0.001   83.846   83.869
 rebuild_ks_matrix                   42  6.0    0.000    0.000   83.767   83.789
 qs_ks_build_kohn_sham_matrix        42  7.0    0.006    0.008   83.766   83.789
 make_m2s                          3714 11.1    0.116    0.122   80.771   81.649
 mp_deallocate_i                  15816 14.3   73.951   76.287   73.951   76.287
 dbcsr_data_release              124010 13.7    0.306    0.350   66.707   69.299
 make_images                       3714 12.1    0.153    0.163   49.102   49.550
 pw_transfer                       4211  9.9    0.199    0.231   45.198   46.857
 fft_wrap_pw1pw2                   3749 10.9    0.024    0.027   44.727   46.383
 qs_vxc_create                       42  8.0    0.003    0.005   44.734   44.826
 fft3d_ps                          3749 12.9   12.539   13.890   37.676   39.715
 setup_buffer_matrices             3714 12.1    0.050    0.051   37.826   39.604
 dbcsr_create_new                 21568 12.6    0.111    0.115   35.822   37.209
 dbcsr_make_index_exist           21568 13.6    0.053    0.061   35.157   36.536
 fft_wrap_pw1pw2_400                929 11.9    2.597    3.166   34.674   35.597
 qs_ot_get_p                         86  8.0    0.001    0.001   32.642   32.958
 dbcsr_make_images_dense           3340 12.3    0.047    0.048   31.500   32.337
 xc_vxc_pw_create                    42  9.0    0.480    0.543   31.568   31.693
 qs_rho_update_rho                   43  5.0    0.000    0.000   30.423   30.496
 calculate_rho_elec                  86  6.0   14.620   14.892   30.423   30.495
 sum_up_and_integrate                42  8.0    0.170    0.212   27.052   27.202
 integrate_v_rspace                  84  9.0   13.574   13.814   26.882   27.055
 mp_alltoall_z22v                  3749 14.9   22.417   25.464   22.417   25.464
 qs_ot_p2m_diag                      84  9.0    0.011    0.013   20.219   20.519
 dbcsr_special_finalize            3714 13.1    0.015    0.016   19.924   20.367
 quick_finalize                    4159 13.9    0.023    0.025   19.901   20.344
 qs_ot_get_orbitals                  84  8.0    0.000    0.001   19.247   19.429
 buffer_matrices_ensure_size       3714 12.1    0.209    0.238   17.536   18.125
 mp_waitall_1                    171344 13.3   15.222   17.784   15.222   17.784
 xc_rho_set_and_dset_create          42 10.0    0.275    0.313   16.652   17.757
 dbcsr_switch_data_area           12053 13.8    0.014    0.015   16.643   16.975
 yz_to_x                           1603 13.7    1.023    1.196   12.472   14.838
 rs_pw_transfer                     681  9.5    0.007    0.008   13.990   14.270
 density_rs2pw                       86  7.0    0.005    0.006   13.476   13.836
 calculate_dispersion_nonloc         42  9.0    1.197    1.496   13.163   13.304
 x_to_yz                           1976 14.1    1.560    1.910   12.520   13.092
 ot_diis_step                        42  9.0    0.003    0.004   12.850   12.850
 apply_preconditioner_dbcsr          86 10.0    0.000    0.000   12.618   12.692
 apply_single                        86 11.0    0.000    0.000   12.618   12.691
 potential_pw2rs                     84 10.0    0.022    0.024   11.529   11.688
 calculate_dm_sparse                 86  7.0    0.001    0.001   11.115   11.175
 make_images_sizes                 3714 13.1    0.006    0.006    8.869   10.710
 mp_alltoall_i44                   3714 14.1    8.863   10.704    8.863   10.704
 multiply_cannon_metrocomm1       14856 12.1    0.056    0.059    7.787   10.380
 mp_sum_l                          8950 11.2    7.300    9.539    7.300    9.539
 fft_wrap_pw1pw2_100               2310 12.0    0.412    0.572    8.455    9.145
 xc_functional_eval                  84 11.0    0.001    0.001    6.028    7.128
 libxc_lsd_eval                      84 12.0    6.027    7.127    6.028    7.128
 mp_allgather_i34                  1857 12.1    4.690    6.892    4.690    6.892
 -------------------------------------------------------------------------------

 The number of warnings for this run is : 1
 
 -------------------------------------------------------------------------------
  **** **** ******  **  PROGRAM ENDED AT                 2024-03-14 22:52:43.688
 ***** ** ***  *** **   PROGRAM RAN ON                                      tc16
 **    ****   ******    PROGRAM RAN BY                                  fambrosi
 ***** **    ** ** **   PROGRAM PROCESS ID                                  5018
  **** **  *******  **  PROGRAM STOPPED IN          /scratch/fambrosi.55023.tccw
