 DBCSR| Multiplication driver                                               BLAS
 DBCSR| Multrec recursion limit                                              512
 DBCSR| Multiplication stack size                                           1000
 DBCSR| Maximum elements for images                                    UNLIMITED
 DBCSR| Multiplicative factor virtual images                                   1
 DBCSR| Multiplication size stacks                                             3
 DBCSR| Number of 3D layers                                               SINGLE
 DBCSR| Use MPI memory allocation                                              T
 DBCSR| Use RMA algorithm                                                      F
 DBCSR| Use Communication thread                                               T
 DBCSR| Communication thread load                                             87


  **** **** ******  **  PROGRAM STARTED AT               2024-03-16 17:14:21.935
 ***** ** ***  *** **   PROGRAM STARTED ON                                  tc22
 **    ****   ******    PROGRAM STARTED BY                              fambrosi
 ***** **    ** ** **   PROGRAM PROCESS ID                                 14651
  **** **  *******  **  PROGRAM STARTED IN          /scratch/fambrosi.55157.tccw

 CP2K| version string:                                          CP2K version 6.1
 CP2K| source code revision number:                                    svn:18464
 CP2K| cp2kflags: libint fftw3 libxc parallel mpi3 scalapack has_no_shared_glibc
 CP2K|             libderiv_max_am1=5 libint_max_am=6 max_contr=4 mkl
 CP2K| is freely available from                            https://www.cp2k.org/
 CP2K| Program compiled at                         Mon Jun 25 12:26:44 CEST 2018
 CP2K| Program compiled on                                                  tccw
 CP2K| Program compiled for                     Linux-x86-64-intel.MPI-OPENMP.O2
 CP2K| Data directory path                           /home/edoardo/cp2k-6.1/data
 CP2K| Input file name        /home/fambrosi/hydroxyl/test-koopman/anion/koop3/r
 
 GLOBAL| Force Environment number                                              1
 GLOBAL| Basis set file name               /usr/local/cp2k-6.1/data/BASIS_MOLOPT
 GLOBAL| Potential file name             /usr/local/cp2k-6.1/data/GTH_POTENTIALS
 GLOBAL| MM Potential file name                                     MM_POTENTIAL
 GLOBAL| Coordinate file name                                      __STD_INPUT__
 GLOBAL| Method name                                                        CP2K
 GLOBAL| Project name                                               water+I-.dyn
 GLOBAL| Preferred FFT library                                             FFTW3
 GLOBAL| Preferred diagonalization lib.                                       SL
 GLOBAL| Run type                                                         ENERGY
 GLOBAL| All-to-all communication in single precision                          F
 GLOBAL| FFTs using library dependent lengths                                  T
 GLOBAL| Global print level                                                  LOW
 GLOBAL| Total number of message passing processes                            32
 GLOBAL| Number of threads for this process                                    1
 GLOBAL| This output is from process                                           0
 GLOBAL| CPU model name :  Intel(R) Xeon(R) CPU E5-2683 v4 @ 2.10GHz

 MEMORY| system memory details [Kb]
 MEMORY|                        rank 0           min           max       average
 MEMORY| MemTotal            264564496     264564496     264564496     264564496
 MEMORY| MemFree              73651952      73651952      73651952      73651952
 MEMORY| Buffers                185844        185844        185844        185844
 MEMORY| Cached              182048256     182048256     182048256     182048256
 MEMORY| Slab                  5768864       5768864       5768864       5768864
 MEMORY| SReclaimable          5696152       5696152       5696152       5696152
 MEMORY| MemLikelyFree       261582204     261582204     261582204     261582204

 
 GENERATE|  Preliminary Number of Bonds generated:                             0
 GENERATE|  Achieved consistency in connectivity generation.

 *******************************************************************************
 *******************************************************************************
 **                                                                           **
 **     #####                         ##              ##                      **
 **    ##   ##            ##          ##              ##                      **
 **   ##     ##                       ##            ######                    **
 **   ##     ##  ##   ##  ##   #####  ##  ##   ####   ##    #####    #####    **
 **   ##     ##  ##   ##  ##  ##      ## ##   ##      ##   ##   ##  ##   ##   **
 **   ##  ## ##  ##   ##  ##  ##      ####     ###    ##   ######   ######    **
 **    ##  ###   ##   ##  ##  ##      ## ##      ##   ##   ##       ##        **
 **     #######   #####   ##   #####  ##  ##  ####    ##    #####   ##        **
 **           ##                                                    ##        **
 **                                                                           **
 **                                                ... make the atoms dance   **
 **                                                                           **
 **            Copyright (C) by CP2K developers group (2000 - 2018)           **
 **                                                                           **
 *******************************************************************************


 TOTAL NUMBERS AND MAXIMUM NUMBERS

  Total number of            - Atomic kinds:                                   2
                             - Atoms:                                        191
                             - Shell sets:                                  1146
                             - Shells:                                      1338
                             - Primitive Cartesian functions:               1528
                             - Cartesian basis functions:                   4081
                             - Spherical basis functions:                   3634

  Maximum angular momentum of- Orbital basis functions:                        3
                             - Local part of the GTH pseudopotential:          2
                             - Non-local part of the GTH pseudopotential:      0

  AUX_FIT ADMM-Basis: 
  Total number of            - Shell sets:                                   510
                             - Shells:                                       510
                             - Primitive Cartesian functions:                765
                             - Cartesian basis functions:                    766
                             - Spherical basis functions:                    766
                               Maximum angular momentum                        1


 SCF PARAMETERS         Density guess:                                   RESTART
                        --------------------------------------------------------
                        max_scf:                                              50
                        max_scf_history:                                       0
                        max_diis:                                              4
                        --------------------------------------------------------
                        eps_scf:                                        1.00E-05
                        eps_scf_history:                                0.00E+00
                        eps_diis:                                       1.00E-01
                        eps_eigval:                                     1.00E-05
                        --------------------------------------------------------
                        level_shift [a.u.]:                                 0.00
                        --------------------------------------------------------
                        Outer loop SCF in use 
                        No variables optimised in outer loop
                        eps_scf                                         1.00E-05
                        max_scf                                               50
                        No outer loop optimization
                        step_size                                       5.00E-01

 Spin 1

 Number of electrons:                                                        256
 Number of occupied orbitals:                                                256
 Number of molecular orbitals:                                               256

 Spin 2

 Number of electrons:                                                        255
 Number of occupied orbitals:                                                255
 Number of molecular orbitals:                                               255

 Number of orbital functions:                                               3634
 Number of independent orbital functions:                                   3634

 Extrapolation method: initial_guess

 *** WARNING in qs_initial_guess.F:263 :: User requested to restart the     ***
 *** wavefunction from the file named:                                      ***
 *** /home/fambrosi/hydroxyl/test-koopman/anion/gga3/rr//el.pbe0/water+I-.d ***
 *** n-RESTART.wfn. This file does not exist. Please check the existence    ***
 *** of the file or change properly the value of the keyword                ***
 *** WFN_RESTART_FILE_NAME. Calculation continues using ATOMIC GUESS.       ***



 SCF WAVEFUNCTION OPTIMIZATION

  ----------------------------------- OT ---------------------------------------
  Minimizer      : CG                  : conjugate gradient
  Preconditioner : FULL_SINGLE_INVERSE : inversion of 
                                         H + eS - 2*(Sc)(c^T*H*c+const)(Sc)^T
  Precond_solver : DEFAULT
  Line search    : 2PNT                : 2 energies, one gradient
  stepsize       :    0.08000000                  energy_gap     :    0.08000000
  eps_taylor     :   0.10000E-15                  max_taylor     :             4
  ----------------------------------- OT ---------------------------------------

  Step     Update method      Time    Convergence         Total energy    Change
  ------------------------------------------------------------------------------

 *** WARNING in hfx_energy_potential.F:605 :: The Kohn Sham matrix is not  ***
 *** 100% occupied. This may result in incorrect Hartree-Fock results. Try ***
 *** to decrease EPS_PGF_ORB and EPS_FILTER_MATRIX in the QS section. For  ***
 *** more information see FAQ: https://www.cp2k.org/faq:hfx_eps_warning    ***

     1 OT CG       0.80E-01   83.4     0.01056835     -1043.4914341500 -1.04E+03
     2 OT LS       0.32E+00   15.3                    -1058.4697917463
     3 OT CG       0.32E+00   23.5     0.00829139     -1077.1946629073 -3.37E+01
     4 OT LS       0.19E+00   15.1                    -1083.6297369876
     5 OT CG       0.19E+00   23.7     0.00571255     -1089.8697183942 -1.27E+01
     6 OT LS       0.19E+00   15.4                    -1095.5827884398
     7 OT CG       0.19E+00   24.4     0.00339270     -1095.5898875352 -5.72E+00
     8 OT LS       0.16E+00   15.3                    -1097.0556635446
     9 OT CG       0.16E+00   23.8     0.00235459     -1097.1628651587 -1.57E+00
    10 OT LS       0.19E+00   15.3                    -1098.0989783218
    11 OT CG       0.19E+00   23.7     0.00177932     -1098.1107514567 -9.48E-01
    12 OT LS       0.19E+00   15.3                    -1098.6285273217
    13 OT CG       0.19E+00   23.8     0.00136606     -1098.6289478573 -5.18E-01
    14 OT LS       0.20E+00   15.4                    -1098.9652282169
    15 OT CG       0.20E+00   23.8     0.00089381     -1098.9652672606 -3.36E-01
    16 OT LS       0.20E+00   15.2                    -1099.1140861893
    17 OT CG       0.20E+00   23.8     0.00070057     -1099.1140901582 -1.49E-01
    18 OT LS       0.17E+00   15.2                    -1099.1887367879
    19 OT CG       0.17E+00   24.0     0.00057155     -1099.1916399394 -7.75E-02
    20 OT LS       0.20E+00   15.2                    -1099.2507005700
    21 OT CG       0.20E+00   24.4     0.00040942     -1099.2517952676 -6.02E-02
    22 OT LS       0.23E+00   15.3                    -1099.2868061234
    23 OT CG       0.23E+00   23.9     0.00027731     -1099.2874557867 -3.57E-02
    24 OT LS       0.22E+00   15.3                    -1099.3033045025
    25 OT CG       0.22E+00   23.6     0.00020248     -1099.3033235817 -1.59E-02
    26 OT LS       0.22E+00   15.3                    -1099.3118332958
    27 OT CG       0.22E+00   23.6     0.00017981     -1099.3118333758 -8.51E-03
    28 OT LS       0.26E+00   15.5                    -1099.3194708717
    29 OT CG       0.26E+00   23.7     0.00017862     -1099.3196066390 -7.77E-03
    30 OT LS       0.28E+00   15.2                    -1099.3277209773
    31 OT CG       0.28E+00   23.8     0.00018289     -1099.3277303024 -8.12E-03
    32 OT LS       0.23E+00   15.3                    -1099.3342827922
    33 OT CG       0.23E+00   23.8     0.00016353     -1099.3347007657 -6.97E-03
    34 OT LS       0.21E+00   15.2                    -1099.3396832808
    35 OT CG       0.21E+00   24.3     0.00015096     -1099.3397473516 -5.05E-03
    36 OT LS       0.23E+00   15.3                    -1099.3445341434
    37 OT CG       0.23E+00   23.8     0.00014306     -1099.3445864551 -4.84E-03
    38 OT LS       0.26E+00   15.4                    -1099.3493945801
    39 OT CG       0.26E+00   23.7     0.00013150     -1099.3494418300 -4.86E-03
    40 OT LS       0.24E+00   15.4                    -1099.3533338866
    41 OT CG       0.24E+00   23.6     0.00011953     -1099.3533458384 -3.90E-03
    42 OT LS       0.23E+00   15.4                    -1099.3563780925
    43 OT CG       0.23E+00   23.7     0.00011472     -1099.3563907702 -3.04E-03
    44 OT LS       0.24E+00   15.2                    -1099.3593627977
    45 OT CG       0.24E+00   23.9     0.00011423     -1099.3593710919 -2.98E-03
    46 OT LS       0.25E+00   15.2                    -1099.3624114751
    47 OT CG       0.25E+00   24.4     0.00010875     -1099.3624127824 -3.04E-03
    48 OT LS       0.25E+00   15.3                    -1099.3651429814
    49 OT CG       0.25E+00   24.0     0.00010333     -1099.3651435632 -2.73E-03
    50 OT LS       0.25E+00   15.3                    -1099.3675611188

  Leaving inner SCF loop after reaching    50 steps.


  Electronic density on regular grids:       -510.9999999999        0.0000000001
  Core density on regular grids:              510.9999999998       -0.0000000002
  Total charge density on r-space grids:       -0.0000000001
  Total charge density g-space grids:          -0.0000000001

  Overlap energy of the core charge distribution:               0.00000197409867
  Self energy of the core charge distribution:              -2836.80744583234036
  Core Hamiltonian energy:                                    822.32337692205510
  Hartree energy:                                            1182.66595531683402
  Exchange-correlation energy:                               -152.30716763828826
  Hartree-Fock Exchange energy:                              -117.38761313108623
  Dispersion energy:                                            2.14533126993308

  Total energy:                                             -1099.36756111879413

  outer SCF iter =    1 RMS gradient =   0.10E-03 energy =      -1099.3675611188

  ----------------------------------- OT ---------------------------------------
  Minimizer      : CG                  : conjugate gradient
  Preconditioner : FULL_SINGLE_INVERSE : inversion of 
                                         H + eS - 2*(Sc)(c^T*H*c+const)(Sc)^T
  Precond_solver : DEFAULT
  Line search    : 2PNT                : 2 energies, one gradient
  stepsize       :    0.08000000                  energy_gap     :    0.08000000
  eps_taylor     :   0.10000E-15                  max_taylor     :             4
  ----------------------------------- OT ---------------------------------------

  Step     Update method      Time    Convergence         Total energy    Change
  ------------------------------------------------------------------------------
     1 OT CG       0.80E-01   40.6     0.00019310     -1099.3675626409 -2.42E-03
     2 OT LS       0.24E+00   15.4                    -1099.3721973951
     3 OT CG       0.24E+00   23.3     0.00014994     -1099.3761554698 -8.59E-03
     4 OT LS       0.91E-01   15.1                    -1099.3724996867
     5 OT CG       0.91E-01   23.5     0.00010085     -1099.3781123876 -1.96E-03
     6 OT LS       0.15E+00   15.1                    -1099.3793125547
     7 OT CG       0.15E+00   23.7     0.00004890     -1099.3795132695 -1.40E-03
     8 OT LS       0.17E+00   15.1                    -1099.3798785878
     9 OT CG       0.17E+00   23.5     0.00003985     -1099.3798854108 -3.72E-04
    10 OT LS       0.95E-01   15.2                    -1099.3799358914
    11 OT CG       0.95E-01   23.1     0.00002483     -1099.3800263321 -1.41E-04
    12 OT LS       0.16E+00   15.3                    -1099.3801029862
    13 OT CG       0.16E+00   23.3     0.00001615     -1099.3801179701 -9.16E-05
    14 OT LS       0.16E+00   15.2                    -1099.3801564924
    15 OT CG       0.16E+00   23.3     0.00001402     -1099.3801564928 -3.85E-05
    16 OT LS       0.11E+00   15.1                    -1099.3801733061
    17 OT CG       0.11E+00   23.4     0.00001062     -1099.3801769763 -2.05E-05
    18 OT LS       0.27E+00   15.1                    -1099.3801956042
    19 OT CG       0.27E+00   23.7     0.00001164     -1099.3802053161 -2.83E-05
    20 OT LS       0.27E+00   15.2                    -1099.3802388842
    21 OT CG       0.27E+00   23.4     0.00001870     -1099.3802388903 -3.36E-05
    22 OT LS       0.22E+00   15.2                    -1099.3803053219
    23 OT CG       0.22E+00   23.2     0.00002342     -1099.3803093309 -7.04E-05
    24 OT LS       0.47E+00   15.2                    -1099.3804781618
    25 OT CG       0.47E+00   23.5     0.00004266     -1099.3805140588 -2.05E-04
    26 OT LS       0.37E-01   15.2                    -1099.3743538752
    27 OT CG       0.37E-01   23.4     0.00004003     -1099.3805855563 -7.15E-05
    28 OT LS       0.15E+00   15.1                    -1099.3806817077
    29 OT CG       0.15E+00   24.0     0.00003217     -1099.3808129844 -2.27E-04
    30 OT LS       0.13E+00   15.1                    -1099.3809390022
    31 OT CG       0.13E+00   23.4     0.00002468     -1099.3809415125 -1.29E-04
    32 OT LS       0.13E+00   15.1                    -1099.3810128334
    33 OT CG       0.13E+00   23.3     0.00001399     -1099.3810128648 -7.14E-05
    34 OT LS       0.17E+00   15.4                    -1099.3810417884
    35 OT CG       0.17E+00   23.3     0.00001264     -1099.3810439139 -3.10E-05
    36 OT LS       0.14E+00   15.1                    -1099.3810628790
    37 OT CG       0.14E+00   23.4     0.00001105     -1099.3810641608 -2.02E-05
    38 OT LS       0.29E+00   15.1                    -1099.3810877380
    39 OT CG       0.29E+00   23.7     0.00001235     -1099.3810966901 -3.25E-05
    40 OT LS       0.25E+00   15.1                    -1099.3811311360
    41 OT CG       0.25E+00   23.7     0.00001715     -1099.3811319311 -3.52E-05
    42 OT LS       0.21E+00   15.3                    -1099.3811868019
    43 OT CG       0.21E+00   23.3     0.00002036     -1099.3811890275 -5.71E-05
    44 OT LS       0.31E+00   15.2                    -1099.3812957265
    45 OT CG       0.31E+00   23.2     0.00002432     -1099.3813063355 -1.17E-04
    46 OT LS       0.19E+00   15.3                    -1099.3813611721
    47 OT CG       0.19E+00   23.3     0.00002529     -1099.3814061548 -9.98E-05
    48 OT LS       0.17E+00   15.1                    -1099.3815035924
    49 OT CG       0.17E+00   23.4     0.00002135     -1099.3815050692 -9.89E-05
    50 OT LS       0.23E+00   15.1                    -1099.3815952215

  Leaving inner SCF loop after reaching    50 steps.


  Electronic density on regular grids:       -510.9999999999        0.0000000001
  Core density on regular grids:              510.9999999998       -0.0000000002
  Total charge density on r-space grids:       -0.0000000001
  Total charge density g-space grids:          -0.0000000001

  Overlap energy of the core charge distribution:               0.00000197409867
  Self energy of the core charge distribution:              -2836.80744583234036
  Core Hamiltonian energy:                                    822.30549670942332
  Hartree energy:                                            1182.68951911128352
  Exchange-correlation energy:                               -152.30858795305716
  Hartree-Fock Exchange energy:                              -117.40591829047213
  Dispersion energy:                                            2.14533905952183

  Total energy:                                             -1099.38159522154228

  outer SCF iter =    2 RMS gradient =   0.21E-04 energy =      -1099.3815952215

  ----------------------------------- OT ---------------------------------------
  Minimizer      : CG                  : conjugate gradient
  Preconditioner : FULL_SINGLE_INVERSE : inversion of 
                                         H + eS - 2*(Sc)(c^T*H*c+const)(Sc)^T
  Precond_solver : DEFAULT
  Line search    : 2PNT                : 2 energies, one gradient
  stepsize       :    0.08000000                  energy_gap     :    0.08000000
  eps_taylor     :   0.10000E-15                  max_taylor     :             4
  ----------------------------------- OT ---------------------------------------

  Step     Update method      Time    Convergence         Total energy    Change
  ------------------------------------------------------------------------------
     1 OT CG       0.80E-01   40.4     0.00001706     -1099.3816034700 -9.84E-05
     2 OT LS       0.86E-01   14.7                    -1099.3816266244
     3 OT CG       0.86E-01   21.6     0.00001338     -1099.3816267419 -2.33E-05
     4 OT LS       0.16E+00   15.1                    -1099.3816475718
     5 OT CG       0.16E+00   22.8     0.00000770     -1099.3816530103 -2.63E-05

  *** SCF run converged in     5 steps ***


  Electronic density on regular grids:       -510.9999999999        0.0000000001
  Core density on regular grids:              510.9999999998       -0.0000000002
  Total charge density on r-space grids:       -0.0000000001
  Total charge density g-space grids:          -0.0000000001

  Overlap energy of the core charge distribution:               0.00000197409867
  Self energy of the core charge distribution:              -2836.80744583234036
  Core Hamiltonian energy:                                    822.30166578648800
  Hartree energy:                                            1182.69241816666499
  Exchange-correlation energy:                               -152.30816252213117
  Hartree-Fock Exchange energy:                              -117.40546684065816
  Dispersion energy:                                            2.14533625761498

  Total energy:                                             -1099.38165301026311

  outer SCF iter =    3 RMS gradient =   0.77E-05 energy =      -1099.3816530103
  outer SCF loop converged in   3 iterations or  105 steps


  Integrated absolute spin density  :                               1.1904966259
  Ideal and single determinant S**2 :                    0.750000       0.758610
  
  Eigenvalues of the occupied subspace spin            1
 ---------------------------------------------
      -1.17704428     -1.07961952     -1.05838247     -1.05368737
      -1.04762121     -1.04358592     -1.03990842     -1.03872998
      -1.03534222     -1.03235550     -1.03219276     -1.03121559
      -1.02970179     -1.02835610     -1.02691299     -1.02453322
      -1.02413408     -1.02197021     -1.02115963     -1.01957883
      -1.01853976     -1.01716740     -1.01670607     -1.01472961
      -1.01455202     -1.01430856     -1.01288007     -1.01253300
      -1.01247566     -1.01222702     -1.01088716     -1.01024628
      -1.00795944     -1.00696991     -1.00574799     -1.00400650
      -1.00250134     -1.00193262     -1.00101830     -1.00069352
      -0.99981364     -0.99844100     -0.99786611     -0.99719461
      -0.99475721     -0.99422596     -0.99374983     -0.99293884
      -0.99228678     -0.98961642     -0.98858763     -0.98726610
      -0.98604057     -0.98252154     -0.98130159     -0.98054372
      -0.97849666     -0.97759813     -0.97695300     -0.97492552
      -0.97079838     -0.96903259     -0.96383836     -0.95661729
      -0.59232022     -0.56722835     -0.55057168     -0.51994021
      -0.51619459     -0.51351814     -0.50721469     -0.50672614
      -0.50511886     -0.50235563     -0.49998692     -0.49754445
      -0.49463739     -0.49412180     -0.49230794     -0.49022288
      -0.48848857     -0.48799572     -0.48769288     -0.48550797
      -0.48513652     -0.48444790     -0.48314185     -0.48222387
      -0.48186226     -0.48160137     -0.48003783     -0.47902364
      -0.47785731     -0.47744942     -0.47694870     -0.47622693
      -0.47495541     -0.47335085     -0.47168942     -0.47104573
      -0.46988016     -0.46891227     -0.46821680     -0.46630396
      -0.46526669     -0.46273893     -0.46170652     -0.46114001
      -0.46015208     -0.46005162     -0.45954592     -0.45513057
      -0.45293306     -0.45227437     -0.45167857     -0.45116104
      -0.45045859     -0.44939266     -0.44795950     -0.44748303
      -0.44627329     -0.44536950     -0.44464967     -0.44041891
      -0.43721881     -0.43503616     -0.43270635     -0.43188006
      -0.42550459     -0.41161998     -0.40672750     -0.40360787
      -0.40094464     -0.39930616     -0.39362711     -0.39207994
      -0.38927252     -0.38824940     -0.38569714     -0.38442194
      -0.38209453     -0.37986285     -0.37839814     -0.37579335
      -0.37321846     -0.37205689     -0.37039396     -0.36855337
      -0.36716178     -0.36485077     -0.36385110     -0.36125008
      -0.36110596     -0.35883444     -0.35756098     -0.35584905
      -0.35483710     -0.35344551     -0.35151046     -0.34955234
      -0.34915210     -0.34788039     -0.34527737     -0.34456966
      -0.34150081     -0.34026820     -0.33880971     -0.33831637
      -0.33684039     -0.33537980     -0.33458647     -0.33330571
      -0.33236213     -0.33100445     -0.33023947     -0.32807075
      -0.32770832     -0.32638479     -0.32530005     -0.32454182
      -0.32185621     -0.32026164     -0.31878970     -0.31646000
      -0.31411782     -0.31265637     -0.30625124     -0.30466761
      -0.30256753     -0.30082440     -0.29928657     -0.29840938
      -0.29454219     -0.29406025     -0.29193928     -0.29155418
      -0.28932221     -0.28864260     -0.28614949     -0.28509717
      -0.28428446     -0.28286374     -0.28186043     -0.28097358
      -0.27956016     -0.27825396     -0.27658539     -0.27607084
      -0.27539331     -0.27432359     -0.27384187     -0.27282653
      -0.27263873     -0.27203715     -0.27171293     -0.27128121
      -0.27053385     -0.27032745     -0.26794515     -0.26732158
      -0.26687212     -0.26661044     -0.26536996     -0.26476444
      -0.26387095     -0.26380701     -0.26321611     -0.26247151
      -0.26133389     -0.26015777     -0.25924340     -0.25839093
      -0.25805269     -0.25773808     -0.25687584     -0.25655456
      -0.25636799     -0.25580431     -0.25500020     -0.25329383
      -0.25318911     -0.25209250     -0.24958081     -0.24913477
      -0.24850277     -0.24821997     -0.24704123     -0.24378506
      -0.23994894     -0.23841373     -0.23780687     -0.23633548
      -0.23452945     -0.22909649     -0.22775771     -0.22069593
 Fermi Energy [eV] :   -6.005442
  
  Eigenvalues of the occupied subspace spin            2
 ---------------------------------------------
      -1.09403702     -1.06434447     -1.05537590     -1.05346179
      -1.04387253     -1.03991891     -1.03898684     -1.03868234
      -1.03532262     -1.03222382     -1.03145606     -1.03101488
      -1.02967741     -1.02830010     -1.02680620     -1.02446122
      -1.02404818     -1.02195865     -1.02109613     -1.01956110
      -1.01849551     -1.01713239     -1.01660753     -1.01464205
      -1.01436382     -1.01408764     -1.01275630     -1.01249984
      -1.01224061     -1.01185946     -1.01029920     -1.00973559
      -1.00785105     -1.00689530     -1.00564608     -1.00398217
      -1.00247920     -1.00192869     -1.00097312     -1.00061872
      -0.99978324     -0.99840854     -0.99779453     -0.99712048
      -0.99474560     -0.99419172     -0.99373591     -0.99292066
      -0.99228253     -0.98957114     -0.98851699     -0.98721496
      -0.98600801     -0.98243721     -0.98129894     -0.98052591
      -0.97848660     -0.97758153     -0.97694921     -0.97488594
      -0.97079169     -0.96878914     -0.96383756     -0.95661433
      -0.56107927     -0.54414309     -0.52433546     -0.51616784
      -0.51334304     -0.51052149     -0.50698667     -0.50524510
      -0.50235415     -0.50017202     -0.49831436     -0.49567376
      -0.49411248     -0.49386213     -0.49217875     -0.48912454
      -0.48842995     -0.48784373     -0.48762319     -0.48542898
      -0.48465037     -0.48435807     -0.48276570     -0.48191931
      -0.48163363     -0.48086042     -0.47978444     -0.47809931
      -0.47771032     -0.47697947     -0.47633980     -0.47542418
      -0.47340271     -0.47157795     -0.47074752     -0.46982509
      -0.46848638     -0.46718858     -0.46630271     -0.46484299
      -0.46273110     -0.46170081     -0.46114518     -0.46014024
      -0.46004335     -0.45953555     -0.45511267     -0.45289582
      -0.45229399     -0.45156480     -0.45114947     -0.45047120
      -0.44935280     -0.44793540     -0.44745139     -0.44628307
      -0.44535470     -0.44461438     -0.44040799     -0.43718926
      -0.43498487     -0.43190670     -0.42772939     -0.42550360
      -0.41161919     -0.40623283     -0.40324606     -0.40094684
      -0.39672530     -0.39320536     -0.39170697     -0.38913511
      -0.38815560     -0.38553000     -0.38297516     -0.38207577
      -0.37960591     -0.37766755     -0.37428971     -0.37268038
      -0.37136803     -0.37033584     -0.36815197     -0.36687815
      -0.36484402     -0.36274054     -0.36113741     -0.36012016
      -0.35880392     -0.35749715     -0.35586502     -0.35442370
      -0.35228572     -0.35143957     -0.34928694     -0.34843737
      -0.34652987     -0.34455338     -0.34411188     -0.34119108
      -0.33992728     -0.33837112     -0.33706639     -0.33622933
      -0.33511094     -0.33445669     -0.33323306     -0.33222559
      -0.33083473     -0.32976533     -0.32787532     -0.32729260
      -0.32599196     -0.32494121     -0.32407241     -0.32143033
      -0.32013689     -0.31858321     -0.31629343     -0.31386330
      -0.31253019     -0.30614411     -0.30436657     -0.30248714
      -0.30050592     -0.29915805     -0.29828873     -0.29437051
      -0.29398385     -0.29184322     -0.28997901     -0.28906703
      -0.28862947     -0.28593377     -0.28477140     -0.28426108
      -0.28286971     -0.28094523     -0.28090151     -0.27936964
      -0.27801042     -0.27645434     -0.27585976     -0.27535324
      -0.27406547     -0.27380788     -0.27280632     -0.27258041
      -0.27189933     -0.27166761     -0.27123083     -0.27050243
      -0.27027412     -0.26789502     -0.26731098     -0.26682210
      -0.26651875     -0.26535001     -0.26473633     -0.26383866
      -0.26372026     -0.26319778     -0.26234050     -0.26127928
      -0.26011675     -0.25922563     -0.25836692     -0.25798656
      -0.25772409     -0.25682907     -0.25653807     -0.25631793
      -0.25577981     -0.25496030     -0.25316092     -0.25305254
      -0.25208682     -0.24957360     -0.24911258     -0.24849110
      -0.24821027     -0.24703293     -0.24375687     -0.23993530
      -0.23840884     -0.23778370     -0.23632719     -0.23431219
      -0.22909482     -0.22775316     -0.22069335
 Fermi Energy [eV] :   -6.005371
  
  Lowest Eigenvalues of the unoccupied subspace spin            1
 -----------------------------------------------------
  Reached convergence in           51  iterations 
       0.10303445
  
  Lowest Eigenvalues of the unoccupied subspace spin            2
 -----------------------------------------------------
  Reached convergence in           81  iterations 
      -0.12204066
  
 HOMO - LUMO gap [eV] :    8.809152
 HOMO - LUMO gap [eV] :    2.684476

 ENERGY| Total FORCE_EVAL ( QS ) energy (a.u.):            -1099.381653010263108


 -------------------------------------------------------------------------------
 -                                                                             -
 -                                DBCSR STATISTICS                             -
 -                                                                             -
 -------------------------------------------------------------------------------
 COUNTER                                    TOTAL       BLAS       SMM       ACC
 flops    63 x     1 x    31                11718     100.0%      0.0%      0.0%
 flops    64 x     1 x    31                35712     100.0%      0.0%      0.0%
 flops    63 x     1 x    32                84672     100.0%      0.0%      0.0%
 flops    65 x     1 x    33               111540     100.0%      0.0%      0.0%
 flops   898 x     1 x    31               167028     100.0%      0.0%      0.0%
 flops    63 x     1 x   442               167076     100.0%      0.0%      0.0%
 flops     1 x     1 x   442               226304     100.0%      0.0%      0.0%
 flops    64 x     1 x    33               329472     100.0%      0.0%      0.0%
 flops   912 x     1 x    31               508896     100.0%      0.0%      0.0%
 flops    65 x     1 x    32               757120     100.0%      0.0%      0.0%
 flops    63 x     1 x   456              1206576     100.0%      0.0%      0.0%
 flops    65 x     1 x   442              1493960     100.0%      0.0%      0.0%
 flops   898 x     1 x    33              1540968     100.0%      0.0%      0.0%
 flops     1 x     1 x   456              1634304     100.0%      0.0%      0.0%
 flops    31 x    31 x   442              2548572     100.0%      0.0%      0.0%
 flops    65 x    33 x   442              3792360     100.0%      0.0%      0.0%
 flops   912 x     1 x    33              4694976     100.0%      0.0%      0.0%
 flops    32 x    31 x   442              7892352     100.0%      0.0%      0.0%
 flops    64 x     1 x    32              8130560     100.0%      0.0%      0.0%
 flops    31 x    32 x   442             10523136     100.0%      0.0%      0.0%
 flops    65 x     1 x   456             10788960     100.0%      0.0%      0.0%
 flops    64 x    33 x   442             11202048     100.0%      0.0%      0.0%
 flops    64 x     1 x   442             14653184     100.0%      0.0%      0.0%
 flops    31 x    31 x   456             18405072     100.0%      0.0%      0.0%
 flops    14 x    31 x    31             20503896     100.0%      0.0%      0.0%
 flops    29 x    31 x    31             21403392     100.0%      0.0%      0.0%
 flops    65 x    32 x   442             25742080     100.0%      0.0%      0.0%
 flops    65 x    33 x   456             27387360     100.0%      0.0%      0.0%
 flops   898 x     1 x    32             31437184     100.0%      0.0%      0.0%
 flops   898 x    33 x   442             52392912     100.0%      0.0%      0.0%
 flops   898 x     1 x   442             53186744     100.0%      0.0%      0.0%
 flops    32 x    31 x   456             56996352     100.0%      0.0%      0.0%
 flops    63 x    31 x    31             66355128     100.0%      0.0%      0.0%
 flops    14 x    32 x    31             74078592     100.0%      0.0%      0.0%
 flops    14 x    31 x    32             74078592     100.0%      0.0%      0.0%
 flops    31 x    32 x   456             75995136     100.0%      0.0%      0.0%
 flops    29 x    32 x    31             77328384     100.0%      0.0%      0.0%
 flops    29 x    31 x    32             77328384     100.0%      0.0%      0.0%
 flops    64 x    33 x   456             80898048     100.0%      0.0%      0.0%
 flops   912 x     1 x    32             95781888     100.0%      0.0%      0.0%
 flops    64 x     1 x   456            105821184     100.0%      0.0%      0.0%
 flops   912 x    33 x   442            159629184     100.0%      0.0%      0.0%
 flops   912 x     1 x   442            162047808     100.0%      0.0%      0.0%
 flops    32 x    32 x   442            173801472     100.0%      0.0%      0.0%
 flops    65 x    32 x   456            185902080     100.0%      0.0%      0.0%
 flops    64 x    31 x    31            202225152     100.0%      0.0%      0.0%
 flops     2 x     2 x    31            211653120     100.0%      0.0%      0.0%
 flops   898 x    33 x   456            378366912     100.0%      0.0%      0.0%
 flops   898 x     1 x   456            384099744     100.0%      0.0%      0.0%
 flops     8 x     2 x    31            413411040     100.0%      0.0%      0.0%
 flops     2 x     8 x    31            414556800     100.0%      0.0%      0.0%
 flops    63 x    31 x   442            455783328     100.0%      0.0%      0.0%
 flops    63 x    31 x    32            479469312     100.0%      0.0%      0.0%
 flops    63 x    32 x    31            479469312     100.0%      0.0%      0.0%
 flops   898 x    31 x    31            626522028     100.0%      0.0%      0.0%
 flops     8 x     8 x    31            664540800     100.0%      0.0%      0.0%
 flops   912 x    33 x   456           1152797184     100.0%      0.0%      0.0%
 flops   912 x     1 x   456           1170263808     100.0%      0.0%      0.0%
 flops    32 x    32 x   456           1255145472     100.0%      0.0%      0.0%
 flops   898 x    31 x   442           1378092352     100.0%      0.0%      0.0%
 flops    64 x    31 x   442           1389053952     100.0%      0.0%      0.0%
 flops    14 x    32 x    32           1398276096     100.0%      0.0%      0.0%
 flops    29 x    32 x    32           1459617792     100.0%      0.0%      0.0%
 flops    64 x    32 x    31           1461239808     100.0%      0.0%      0.0%
 flops    64 x    31 x    32           1461239808     100.0%      0.0%      0.0%
 flops    14 x     1 x    14           1700243160     100.0%      0.0%      0.0%
 flops    29 x     1 x    14           1785061824     100.0%      0.0%      0.0%
 flops    14 x     1 x    29           1785061824     100.0%      0.0%      0.0%
 flops    29 x     1 x    29           1866135268     100.0%      0.0%      0.0%
 flops   912 x    31 x    31           1908868896     100.0%      0.0%      0.0%
 flops     2 x     2 x    32           3277209600     100.0%      0.0%      0.0%
 flops    63 x    31 x   456           3291539328     100.0%      0.0%      0.0%
 flops    63 x    32 x   442           3293402112     100.0%      0.0%      0.0%
 flops    63 x    32 x    32           3464552448     100.0%      0.0%      0.0%
 flops   912 x    31 x   442           4198731264     100.0%      0.0%      0.0%
 flops   898 x    32 x    31           4527126912     100.0%      0.0%      0.0%
 flops   898 x    31 x    32           4527126912     100.0%      0.0%      0.0%
 flops     8 x     2 x    32           6401203200     100.0%      0.0%      0.0%
 flops     2 x     8 x    32           6418944000     100.0%      0.0%      0.0%
 flops   898 x    31 x   456           9952196352     100.0%      0.0%      0.0%
 flops    64 x    31 x   456          10031357952     100.0%      0.0%      0.0%
 flops     8 x     8 x    32          10289664000     100.0%      0.0%      0.0%
 flops    14 x    14 x    31          10686225760     100.0%      0.0%      0.0%
 flops    29 x    14 x    31          11126577784     100.0%      0.0%      0.0%
 flops    14 x    29 x    31          11131914248     100.0%      0.0%      0.0%
 flops    29 x    29 x    31          11816107188     100.0%      0.0%      0.0%
 flops   912 x    31 x    32          13793117184     100.0%      0.0%      0.0%
 flops   912 x    32 x    31          13793117184     100.0%      0.0%      0.0%
 flops   898 x    32 x   442          22303503872     100.0%      0.0%      0.0%
 flops    63 x    32 x   456          23784026112     100.0%      0.0%      0.0%
 flops    64 x    32 x   442          25523470336     100.0%      0.0%      0.0%
 flops    64 x    32 x    32          25658130432     100.0%      0.0%      0.0%
 flops   912 x    31 x   456          30322059264     100.0%      0.0%      0.0%
 flops    14 x    31 x    14          34425218520     100.0%      0.0%      0.0%
 flops    29 x    31 x    14          36142561728     100.0%      0.0%      0.0%
 flops    14 x    31 x    29          36142561728     100.0%      0.0%      0.0%
 flops    29 x    31 x    29          37784074596     100.0%      0.0%      0.0%
 flops   912 x    32 x   442          67953659904     100.0%      0.0%      0.0%
 flops   898 x    32 x    32          75438206976     100.0%      0.0%      0.0%
 flops   898 x    32 x   456         161069647872     100.0%      0.0%      0.0%
 flops    14 x    14 x    32         165464140800     100.0%      0.0%      0.0%
 flops    29 x    14 x    32         172282494720     100.0%      0.0%      0.0%
 flops    14 x    29 x    32         172365123840     100.0%      0.0%      0.0%
 flops    29 x    29 x    32         182959079040     100.0%      0.0%      0.0%
 flops    64 x    32 x   456         184323342336     100.0%      0.0%      0.0%
 flops   912 x    32 x    32         229842911232     100.0%      0.0%      0.0%
 flops   912 x    32 x   456         490742267904     100.0%      0.0%      0.0%
 flops    14 x    32 x    14         529823374080     100.0%      0.0%      0.0%
 flops    29 x    32 x    14         556254246912     100.0%      0.0%      0.0%
 flops    14 x    32 x    29         556254246912     100.0%      0.0%      0.0%
 flops    29 x    32 x    29         581518048384     100.0%      0.0%      0.0%
 flops inhomo. stacks                     2894062     100.0%      0.0%      0.0%
 flops total                         4.568080E+12     100.0%      0.0%      0.0%
 flops max/rank                    145.119916E+09     100.0%      0.0%      0.0%
 matmuls inhomo. stacks                      2291     100.0%      0.0%      0.0%
 matmuls total                          174367184     100.0%      0.0%      0.0%
 number of processed stacks               1459067     100.0%      0.0%      0.0%
 average stack size                                   119.5       0.0       0.0
 marketing flops                     5.349802E+12
 -------------------------------------------------------------------------------
 # multiplications                           5094
 max memory usage/rank             500.588544E+06
 # max total images/rank                        2
 # max 3D layers                                1
 # MPI messages exchanged                 3423168
 MPI messages size (bytes):
  total size                       759.441588E+09
  min size                           0.000000E+00
  max size                           3.326976E+06
  average size                     221.853438E+03
 MPI breakdown and total messages size (bytes):
             size <=      128             1099672                   100856
       128 < size <=     8192              846216               6596406824
      8192 < size <=    32768              333760               6213481512
     32768 < size <=   131072              595840              65997319360
    131072 < size <=  4194304              547680             680636782112
   4194304 < size <= 16777216                   0                        0
  16777216 < size                               0                        0
 -------------------------------------------------------------------------------

 *** WARNING in dbcsr/mm/dbcsr_mm.F:268 :: Using a non-square number of ***
 *** MPI ranks might lead to poor performance.                          ***
 *** Used ranks: 32                                                     ***
 *** Suggested: 36 64                                                   ***

 -------------------------------------------------------------------------------
 
 MEMORY| Estimated peak process memory [MiB]                                 478

 -------------------------------------------------------------------------------
 -                                                                             -
 -                         MESSAGE PASSING PERFORMANCE                         -
 -                                                                             -
 -------------------------------------------------------------------------------

 ROUTINE             CALLS      AVE VOLUME [Bytes]
 MP_Group              796
 MP_Bcast            10080                 161405.
 MP_Allreduce        52048                    324.
 MP_Sync              1425
 MP_Alltoall         37555                2217822.
 MP_ISendRecv        52390                  74823.
 MP_Wait            492904
 MP_comm_split         473
 MP_ISend           267418                 139690.
 MP_IRecv           266918                 140420.
 MP_Recv                84                 930304.
 MP_Memory          297124
 -------------------------------------------------------------------------------


 -------------------------------------------------------------------------------
 -                                                                             -
 -                           R E F E R E N C E S                               -
 -                                                                             -
 -------------------------------------------------------------------------------
 
 CP2K version 6.1, the CP2K developers group (2018).
 CP2K is freely available from https://www.cp2k.org/ .

 Schuett, Ole; Messmer, Peter; Hutter, Juerg; VandeVondele, Joost. 
 Electronic Structure Calculations on Graphics Processing Units, John Wiley & Sons, Ltd, 173-190 (2016). 
 GPU-Accelerated Sparse Matrix-Matrix Multiplication for Linear Scaling Density Functional Theory.
 http://dx.doi.org/10.1002/9781118670712.ch8


 Borstnik, U; VandeVondele, J; Weber, V; Hutter, J. 
 PARALLEL COMPUTING, 40 (5-6), 47-58 (2014). 
 Sparse matrix multiplication: The distributed block-compressed sparse
 row library.
 http://dx.doi.org/10.1016/j.parco.2014.03.012


 Hutter, J; Iannuzzi, M; Schiffmann, F; VandeVondele, J. 
 WILEY INTERDISCIPLINARY REVIEWS-COMPUTATIONAL MOLECULAR SCIENCE, 4 (1), 15-25 (2014). 
 CP2K: atomistic simulations of condensed matter systems.
 http://dx.doi.org/10.1002/wcms.1159


 Sabatini, R; Gorni, T; de Gironcoli, S. 
 Phys. Rev. B, 87 (4), 041108(R) (2013). 
 Nonlocal van der Waals density functional made simple and efficient.
 http://dx.doi.org/10.1103/PhysRevB.87.041108


 Guidon, M; Hutter, J; VandeVondele, J. 
 JOURNAL OF CHEMICAL THEORY AND COMPUTATION, 6 (8), 2348-2364 (2010). 
 Auxiliary Density Matrix Methods for Hartree-Fock Exchange Calculations.
 http://dx.doi.org/10.1021/ct1002225


 Guidon, M; Hutter, J; VandeVondele, J. 
 JOURNAL OF CHEMICAL THEORY AND COMPUTATION, 5 (11), 3010-3021 (2009). 
 Robust Periodic Hartree-Fock Exchange for Large-Scale Simulations Using
 Gaussian Basis Sets.
 http://dx.doi.org/10.1021/ct900494g


 Roman-Perez, G; Soler, JM. 
 Phys. Rev. Lett., 103 (9), 096102 (2009). 
 Efficient Implementation of a van der Waals Density Functional:
 Application to Double-Wall Carbon Nanotubes.
 http://dx.doi.org/10.1103/PhysRevLett.103.096102


 Guidon, M; Schiffmann, F; Hutter, J; VandeVondele, J. 
 JOURNAL OF CHEMICAL PHYSICS, 128 (21), 214104 (2008). 
 Ab initio molecular dynamics using hybrid density functionals.
 http://dx.doi.org/10.1063/1.2931945


 VandeVondele, J; Hutter, J. 
 JOURNAL OF CHEMICAL PHYSICS, 127 (11), 114105 (2007). 
 Gaussian basis sets for accurate calculations on molecular systems in
 gas and condensed phases.
 http://dx.doi.org/10.1063/1.2770708


 Krack, M. 
 THEORETICAL CHEMISTRY ACCOUNTS, 114 (1-3), 145-152 (2005). 
 Pseudopotentials for H to Kr optimized for gradient-corrected
 exchange-correlation functionals.
 http://dx.doi.org/10.1007/s00214-005-0655-y


 VandeVondele, J; Krack, M; Mohamed, F; Parrinello, M; Chassaing, T;
 Hutter, J. COMPUTER PHYSICS COMMUNICATIONS, 167 (2), 103-128 (2005). 
 QUICKSTEP: Fast and accurate density functional calculations using a
 mixed Gaussian and plane waves approach.
 http://dx.doi.org/10.1016/j.cpc.2004.12.014


 Frigo, M; Johnson, SG. 
 PROCEEDINGS OF THE IEEE, 93 (2), 216-231 (2005). 
 The design and implementation of FFTW3.
 http://dx.doi.org/10.1109/JPROC.2004.840301


 Heyd, J; Scuseria, GE. 
 JOURNAL OF CHEMICAL PHYSICS, 120 (16), 7274-7280 (2004). 
 Assessment and validation of a screened Coulomb hybrid density
 functional.
 http://dx.doi.org/10.1063/1.1668634


 VandeVondele, J; Hutter, J. 
 JOURNAL OF CHEMICAL PHYSICS, 118 (10), 4365-4369 (2003). 
 An efficient orbital transformation method for electronic structure
 calculations.
 http://dx.doi.org/10.1063/1.1543154


 Hartwigsen, C; Goedecker, S; Hutter, J. 
 PHYSICAL REVIEW B, 58 (7), 3641-3662 (1998). 
 Relativistic separable dual-space Gaussian pseudopotentials from H to Rn.
 http://dx.doi.org/10.1103/PhysRevB.58.3641


 Lippert, G; Hutter, J; Parrinello, M. 
 MOLECULAR PHYSICS, 92 (3), 477-487 (1997). 
 A hybrid Gaussian and plane wave density functional scheme.
 http://dx.doi.org/10.1080/002689797170220


 Perdew, JP; Burke, K; Ernzerhof, M. 
 PHYSICAL REVIEW LETTERS, 77 (18), 3865-3868 (1996). 
 Generalized gradient approximation made simple.
 http://dx.doi.org/10.1103/PhysRevLett.77.3865


 Goedecker, S; Teter, M; Hutter, J. 
 PHYSICAL REVIEW B, 54 (3), 1703-1710 (1996). 
 Separable dual-space Gaussian pseudopotentials.
 http://dx.doi.org/10.1103/PhysRevB.54.1703


 -------------------------------------------------------------------------------
 -                                                                             -
 -                                T I M I N G                                  -
 -                                                                             -
 -------------------------------------------------------------------------------
 SUBROUTINE                       CALLS  ASD         SELF TIME        TOTAL TIME
                                MAXIMUM       AVERAGE  MAXIMUM  AVERAGE  MAXIMUM
 CP2K                                 1  1.0    0.091    0.100 2412.927 2412.928
 qs_energies                          1  2.0    0.000    0.001 2411.812 2411.812
 scf_env_do_scf                       1  3.0    0.000    0.001 2106.442 2106.442
 scf_env_do_scf_inner_loop          105  4.0    0.005    0.008 1987.755 1987.774
 qs_ks_update_qs_env                108  5.0    0.001    0.001 1532.962 1532.968
 rebuild_ks_matrix                  105  6.0    0.001    0.001 1532.599 1532.605
 qs_ks_build_kohn_sham_matrix       105  7.0    0.017    0.019 1532.598 1532.604
 dbcsr_multiply_generic            5094  9.1    0.367    0.372  793.983  794.489
 hfx_ks_matrix                      105  8.0    0.004    0.005  760.314  760.549
 integrate_four_center              105  9.0    0.540    0.766  759.967  760.202
 integrate_four_center_main         105 10.0    0.028    0.030  722.909  748.814
 integrate_four_center_bin         6720 11.0  722.881  748.786  722.881  748.786
 qs_vxc_create                      210  8.0    0.010    0.015  531.368  531.513
 xc_rho_set_and_dset_create         210 10.0    1.826    1.929  424.513  446.237
 qs_scf_new_mos                     105  5.0    0.001    0.001  437.102  437.132
 qs_scf_loop_do_ot                  105  6.0    0.001    0.002  437.101  437.131
 multiply_cannon                   5094 10.1    0.909    0.934  419.867  420.919
 ot_scf_mini                        105  7.0    0.007    0.007  399.057  399.094
 mp_deallocate_d                  83748 13.3  389.237  390.526  389.237  390.526
 xc_functional_eval                 525 11.0    0.004    0.005  340.099  361.510
 ot_mini                            237  6.9    0.002    0.002  357.113  357.120
 qs_ot_get_derivative               173  8.2    0.002    0.002  318.061  318.089
 dbcsr_destroy                    74079 10.9    0.274    0.279  310.786  311.019
 scf_post_calculation_gpw             1  3.0    0.000    0.000  302.306  302.306
 make_lumo                            1  4.0    0.000    0.000  301.491  301.492
 ot_eigensolver                       2  5.0    0.003    0.003  300.894  300.895
 xc_vxc_pw_create                   106  9.0    1.795    1.898  298.854  298.854
 mp_deallocate_i                  65136 13.3  296.385  297.992  296.385  297.992
 make_m2s                         10188 10.1    0.384    0.391  278.227  279.113
 pw_transfer                      10647 10.1    0.691    0.808  210.499  234.888
 fft_wrap_pw1pw2                   9544 11.1    0.084    0.094  208.290  232.655
 dbcsr_data_release              377168 12.9    1.414    1.518  230.810  231.076
 fft_wrap_pw1pw2_400               3271 12.3   17.692   21.147  183.837  207.761
 xpbe_hole_t_c_lr_lsd_eval          210 12.0  191.361  201.949  191.361  201.949
 calculate_rho_elec                 422  7.5   94.005   95.357  198.824  198.882
 xc_exc_calc                        104  9.0    0.190    0.197  197.879  197.879
 qs_ot_get_derivative_diag          124  9.2    0.004    0.004  182.521  182.542
 fft3d_ps                          9544 13.1   85.126   87.759  155.590  179.965
 make_images                      10188 11.1    0.526    0.550  172.703  173.634
 qs_ot_get_p                        353  7.2    0.003    0.003  157.030  157.691
 setup_buffer_matrices            10188 11.1    0.204    0.210  151.395  151.573
 dbcsr_create_new                 76839 11.7    0.427    0.438  143.166  143.985
 xwpbe_lsd_eval                     210 12.0  128.545  142.157  128.545  142.157
 dbcsr_make_index_exist           76839 12.7    0.205    0.210  140.372  141.282
 qs_rho_update_rho                  106  5.0    0.001    0.001  126.605  126.633
 admm_mo_calc_rho_aux               105  8.0    0.002    0.002  119.754  119.915
 init_scf_loop                        3  4.0    0.000    0.000  118.673  118.675
 dbcsr_make_images_dense           8886 11.4    0.201    0.205  104.983  105.116
 qs_ot_get_orbitals                 347  7.2    0.002    0.002  100.307  100.345
 density_rs2pw                      422  8.5    0.029    0.033   94.442   96.873
 sum_up_and_integrate                53  8.0    0.712    0.751   88.511   88.558
 integrate_v_rspace                 212  9.0   44.129   44.628   87.781   87.873
 mp_alltoall_z22v                  9544 15.1   47.452   80.347   47.452   80.347
 dbcsr_special_finalize           15282 12.1    0.061    0.063   79.156   80.225
 qs_ot_p2m_diag                     259  8.2    0.035    0.037   77.171   77.216
 rs_pw_transfer                    2537 10.0    0.033    0.038   71.860   73.723
 buffer_matrices_ensure_size      10188 11.1    1.427    1.454   68.583   70.157
 quick_finalize                   14822 13.1    0.076    0.085   65.256   66.315
 yz_to_x                           4849 13.9    8.126    9.126   37.258   65.694
 dbcsr_switch_data_area           40534 13.1    0.050    0.052   58.620   58.865
 qs_ot_get_derivative_taylor         49  9.4    0.002    0.002   55.547   55.554
 mp_waitall_1                    464986 12.5   52.490   54.285   52.490   54.285
 -------------------------------------------------------------------------------

 The number of warnings for this run is : 3
 
 -------------------------------------------------------------------------------
  **** **** ******  **  PROGRAM ENDED AT                 2024-03-16 17:54:35.411
 ***** ** ***  *** **   PROGRAM RAN ON                                      tc22
 **    ****   ******    PROGRAM RAN BY                                  fambrosi
 ***** **    ** ** **   PROGRAM PROCESS ID                                 14651
  **** **  *******  **  PROGRAM STOPPED IN          /scratch/fambrosi.55157.tccw
