 DBCSR| Multiplication driver                                               BLAS
 DBCSR| Multrec recursion limit                                              512
 DBCSR| Multiplication stack size                                           1000
 DBCSR| Maximum elements for images                                    UNLIMITED
 DBCSR| Multiplicative factor virtual images                                   1
 DBCSR| Multiplication size stacks                                             3
 DBCSR| Number of 3D layers                                               SINGLE
 DBCSR| Use MPI memory allocation                                              T
 DBCSR| Use RMA algorithm                                                      F
 DBCSR| Use Communication thread                                               T
 DBCSR| Communication thread load                                             87


  **** **** ******  **  PROGRAM STARTED AT               2024-03-16 15:51:58.787
 ***** ** ***  *** **   PROGRAM STARTED ON                                  tc23
 **    ****   ******    PROGRAM STARTED BY                              fambrosi
 ***** **    ** ** **   PROGRAM PROCESS ID                                 15449
  **** **  *******  **  PROGRAM STARTED IN          /scratch/fambrosi.55144.tccw

 CP2K| version string:                                          CP2K version 6.1
 CP2K| source code revision number:                                    svn:18464
 CP2K| cp2kflags: libint fftw3 libxc parallel mpi3 scalapack has_no_shared_glibc
 CP2K|             libderiv_max_am1=5 libint_max_am=6 max_contr=4 mkl
 CP2K| is freely available from                            https://www.cp2k.org/
 CP2K| Program compiled at                         Mon Jun 25 12:26:44 CEST 2018
 CP2K| Program compiled on                                                  tccw
 CP2K| Program compiled for                     Linux-x86-64-intel.MPI-OPENMP.O2
 CP2K| Data directory path                           /home/edoardo/cp2k-6.1/data
 CP2K| Input file name        /home/fambrosi/hydroxyl/test-koopman/anion/hyb3/el
 
 GLOBAL| Force Environment number                                              1
 GLOBAL| Basis set file name               /usr/local/cp2k-6.1/data/BASIS_MOLOPT
 GLOBAL| Potential file name             /usr/local/cp2k-6.1/data/GTH_POTENTIALS
 GLOBAL| MM Potential file name                                     MM_POTENTIAL
 GLOBAL| Coordinate file name                                      __STD_INPUT__
 GLOBAL| Method name                                                        CP2K
 GLOBAL| Project name                                               water+I-.dyn
 GLOBAL| Preferred FFT library                                             FFTW3
 GLOBAL| Preferred diagonalization lib.                                       SL
 GLOBAL| Run type                                                         ENERGY
 GLOBAL| All-to-all communication in single precision                          F
 GLOBAL| FFTs using library dependent lengths                                  T
 GLOBAL| Global print level                                                  LOW
 GLOBAL| Total number of message passing processes                            32
 GLOBAL| Number of threads for this process                                    1
 GLOBAL| This output is from process                                           0
 GLOBAL| CPU model name :  Intel(R) Xeon(R) CPU E5-2683 v4 @ 2.10GHz

 MEMORY| system memory details [Kb]
 MEMORY|                        rank 0           min           max       average
 MEMORY| MemTotal            264564380     264564380     264564380     264564380
 MEMORY| MemFree              33845936      33845936      33845936      33845936
 MEMORY| Buffers                196860        196860        196860        196860
 MEMORY| Cached              221244036     221244036     221244036     221244036
 MEMORY| Slab                  6357128       6357128       6357128       6357128
 MEMORY| SReclaimable          6283096       6283096       6283096       6283096
 MEMORY| MemLikelyFree       261569928     261569928     261569928     261569928

 
 GENERATE|  Preliminary Number of Bonds generated:                             0
 GENERATE|  Achieved consistency in connectivity generation.

 *******************************************************************************
 *******************************************************************************
 **                                                                           **
 **     #####                         ##              ##                      **
 **    ##   ##            ##          ##              ##                      **
 **   ##     ##                       ##            ######                    **
 **   ##     ##  ##   ##  ##   #####  ##  ##   ####   ##    #####    #####    **
 **   ##     ##  ##   ##  ##  ##      ## ##   ##      ##   ##   ##  ##   ##   **
 **   ##  ## ##  ##   ##  ##  ##      ####     ###    ##   ######   ######    **
 **    ##  ###   ##   ##  ##  ##      ## ##      ##   ##   ##       ##        **
 **     #######   #####   ##   #####  ##  ##  ####    ##    #####   ##        **
 **           ##                                                    ##        **
 **                                                                           **
 **                                                ... make the atoms dance   **
 **                                                                           **
 **            Copyright (C) by CP2K developers group (2000 - 2018)           **
 **                                                                           **
 *******************************************************************************


 TOTAL NUMBERS AND MAXIMUM NUMBERS

  Total number of            - Atomic kinds:                                   2
                             - Atoms:                                        191
                             - Shell sets:                                  1146
                             - Shells:                                      1338
                             - Primitive Cartesian functions:               1528
                             - Cartesian basis functions:                   4081
                             - Spherical basis functions:                   3634

  Maximum angular momentum of- Orbital basis functions:                        3
                             - Local part of the GTH pseudopotential:          2
                             - Non-local part of the GTH pseudopotential:      0

  AUX_FIT ADMM-Basis: 
  Total number of            - Shell sets:                                   510
                             - Shells:                                       510
                             - Primitive Cartesian functions:                765
                             - Cartesian basis functions:                    766
                             - Spherical basis functions:                    766
                               Maximum angular momentum                        1


 SCF PARAMETERS         Density guess:                                   RESTART
                        --------------------------------------------------------
                        max_scf:                                              50
                        max_scf_history:                                       0
                        max_diis:                                              4
                        --------------------------------------------------------
                        eps_scf:                                        1.00E-05
                        eps_scf_history:                                0.00E+00
                        eps_diis:                                       1.00E-01
                        eps_eigval:                                     1.00E-05
                        --------------------------------------------------------
                        level_shift [a.u.]:                                 0.00
                        --------------------------------------------------------
                        Outer loop SCF in use 
                        No variables optimised in outer loop
                        eps_scf                                         1.00E-05
                        max_scf                                               50
                        No outer loop optimization
                        step_size                                       5.00E-01

 Number of electrons:                                                        512
 Number of occupied orbitals:                                                256
 Number of molecular orbitals:                                               256

 Number of orbital functions:                                               3634
 Number of independent orbital functions:                                   3634

 Extrapolation method: initial_guess


 SCF WAVEFUNCTION OPTIMIZATION

  ----------------------------------- OT ---------------------------------------
  Minimizer      : CG                  : conjugate gradient
  Preconditioner : FULL_SINGLE_INVERSE : inversion of 
                                         H + eS - 2*(Sc)(c^T*H*c+const)(Sc)^T
  Precond_solver : DEFAULT
  Line search    : 2PNT                : 2 energies, one gradient
  stepsize       :    0.08000000                  energy_gap     :    0.08000000
  eps_taylor     :   0.10000E-15                  max_taylor     :             4
  ----------------------------------- OT ---------------------------------------

  Step     Update method      Time    Convergence         Total energy    Change
  ------------------------------------------------------------------------------

 *** WARNING in hfx_energy_potential.F:605 :: The Kohn Sham matrix is not  ***
 *** 100% occupied. This may result in incorrect Hartree-Fock results. Try ***
 *** to decrease EPS_PGF_ORB and EPS_FILTER_MATRIX in the QS section. For  ***
 *** more information see FAQ: https://www.cp2k.org/faq:hfx_eps_warning    ***

     1 OT CG       0.80E-01   75.5     0.00143423     -1099.4645130943 -1.10E+03
     2 OT LS       0.19E+00   10.3                    -1099.5846447973
     3 OT CG       0.19E+00   16.4     0.00048373     -1099.6421141874 -1.78E-01
     4 OT LS       0.83E-01   10.4                    -1099.6373012485
     5 OT CG       0.83E-01   16.1     0.00017978     -1099.6511427138 -9.03E-03
     6 OT LS       0.91E-01   10.3                    -1099.6525049041
     7 OT CG       0.91E-01   16.5     0.00007340     -1099.6525162924 -1.37E-03
     8 OT LS       0.91E-01   10.3                    -1099.6527452361
     9 OT CG       0.91E-01   16.4     0.00003218     -1099.6527452361 -2.29E-04
    10 OT LS       0.92E-01   10.3                    -1099.6527894252
    11 OT CG       0.92E-01   16.2     0.00001202     -1099.6527894262 -4.42E-05
    12 OT LS       0.10E+00   10.7                    -1099.6527962952
    13 OT CG       0.10E+00   16.1     0.00000477     -1099.6527963836 -6.96E-06

  *** SCF run converged in    13 steps ***


  Electronic density on regular grids:       -511.9999999999        0.0000000001
  Core density on regular grids:              510.9999999998       -0.0000000002
  Total charge density on r-space grids:       -1.0000000001
  Total charge density g-space grids:          -1.0000000001

  Overlap energy of the core charge distribution:               0.00000197409867
  Self energy of the core charge distribution:              -2836.80744583234036
  Core Hamiltonian energy:                                    823.31419896847865
  Hartree energy:                                            1181.87722996704906
  Exchange-correlation energy:                               -170.15230931625982
  Hartree-Fock Exchange energy:                              -100.02820011608588
  Dispersion energy:                                            2.14372797146312

  Total energy:                                             -1099.65279638359652

  outer SCF iter =    1 RMS gradient =   0.48E-05 energy =      -1099.6527963836
  outer SCF loop converged in   1 iterations or   13 steps

  
  Eigenvalues of the occupied subspace spin            1
 ---------------------------------------------
      -1.02091074     -1.01312954     -1.00991094     -1.00935723
      -1.00812082     -1.00726655     -1.00542124     -1.00344148
      -1.00186710     -1.00105107     -0.99834044     -0.99643779
      -0.99500459     -0.99393940     -0.99190554     -0.99147212
      -0.98947389     -0.98855378     -0.98717593     -0.98651873
      -0.98599273     -0.98465086     -0.98428845     -0.98335799
      -0.98283981     -0.98180955     -0.98134817     -0.98016668
      -0.97933920     -0.97909479     -0.97636504     -0.97513150
      -0.97396090     -0.97323348     -0.97269115     -0.97200496
      -0.97184288     -0.97105245     -0.97045956     -0.96890857
      -0.96879559     -0.96688674     -0.96519697     -0.96474671
      -0.96338060     -0.96209339     -0.96100160     -0.95840968
      -0.95717543     -0.95637706     -0.95523818     -0.95486089
      -0.95321430     -0.94866218     -0.94772593     -0.94686011
      -0.94574059     -0.94390172     -0.94337645     -0.94007975
      -0.93951109     -0.92932861     -0.92640516     -0.87497277
      -0.49745742     -0.49306598     -0.48835240     -0.48808535
      -0.48654708     -0.48608248     -0.48319043     -0.48140285
      -0.48087904     -0.47681459     -0.47608410     -0.47481043
      -0.47435861     -0.47285466     -0.47124777     -0.46916849
      -0.46904600     -0.46765528     -0.46718963     -0.46646994
      -0.46610251     -0.46530977     -0.46358444     -0.46281009
      -0.46123940     -0.45964119     -0.45718963     -0.45682123
      -0.45598846     -0.45545026     -0.45520454     -0.45415577
      -0.45297391     -0.45129463     -0.45113635     -0.45023518
      -0.44991306     -0.44884005     -0.44739586     -0.44662248
      -0.44403498     -0.44364484     -0.44197969     -0.44177444
      -0.44143079     -0.43981600     -0.43856516     -0.43662481
      -0.43459419     -0.43380901     -0.43329945     -0.43179109
      -0.43084990     -0.42994199     -0.42896253     -0.42850358
      -0.42758927     -0.42631640     -0.42329095     -0.42263200
      -0.41928360     -0.41630570     -0.40848234     -0.39315756
      -0.38856220     -0.38345236     -0.38119376     -0.37950544
      -0.37629356     -0.37288950     -0.36945016     -0.36870665
      -0.36434252     -0.36295907     -0.36091052     -0.35825622
      -0.35742591     -0.35521603     -0.35245568     -0.35235248
      -0.35070217     -0.34725093     -0.34557116     -0.34547210
      -0.34483117     -0.34417996     -0.34143771     -0.34025010
      -0.33842907     -0.33647233     -0.33551960     -0.33246764
      -0.33108731     -0.32963702     -0.32830844     -0.32720030
      -0.32635564     -0.32460098     -0.32368779     -0.32300715
      -0.32140316     -0.32117021     -0.31838393     -0.31557655
      -0.31503665     -0.31425985     -0.31349071     -0.31205970
      -0.30992779     -0.30850043     -0.30626192     -0.30490385
      -0.30274212     -0.30204938     -0.30036834     -0.29833745
      -0.29622168     -0.29406256     -0.29160261     -0.29054370
      -0.28580035     -0.28365847     -0.28310900     -0.28187513
      -0.27975765     -0.27849770     -0.27492651     -0.27380728
      -0.27263188     -0.27184636     -0.26967432     -0.26919014
      -0.26748056     -0.26574574     -0.26516273     -0.26459198
      -0.26184793     -0.26113443     -0.26076296     -0.25983744
      -0.25935676     -0.25830421     -0.25795872     -0.25738347
      -0.25634243     -0.25619239     -0.25577824     -0.25400174
      -0.25363336     -0.25316852     -0.25275677     -0.25204316
      -0.25123894     -0.25074271     -0.25060943     -0.24913830
      -0.24878477     -0.24850187     -0.24750227     -0.24678386
      -0.24647007     -0.24541485     -0.24494634     -0.24333616
      -0.24256081     -0.24154916     -0.24133221     -0.24053916
      -0.23979696     -0.23902244     -0.23871597     -0.23788591
      -0.23730574     -0.23698089     -0.23647538     -0.23336218
      -0.23248031     -0.23146401     -0.23002834     -0.22786100
      -0.22714462     -0.22658753     -0.22541550     -0.22381317
      -0.22165165     -0.21631309     -0.21619217     -0.21443098
      -0.21144891     -0.20714157     -0.18720682     -0.18555085
 Fermi Energy [eV] :   -5.049095
  
  Lowest Eigenvalues of the unoccupied subspace spin            1
 -----------------------------------------------------
  Reached convergence in           53  iterations 
       0.10096233
  
 HOMO - LUMO gap [eV] :    7.796420

 ENERGY| Total FORCE_EVAL ( QS ) energy (a.u.):            -1099.652796383596524


 -------------------------------------------------------------------------------
 -                                                                             -
 -                                DBCSR STATISTICS                             -
 -                                                                             -
 -------------------------------------------------------------------------------
 COUNTER                                    TOTAL       BLAS       SMM       ACC
 flops     1 x     1 x   442                91052     100.0%      0.0%      0.0%
 flops    65 x     1 x    33               115830     100.0%      0.0%      0.0%
 flops    64 x     1 x    33               342144     100.0%      0.0%      0.0%
 flops     1 x     1 x   456               657552     100.0%      0.0%      0.0%
 flops    65 x     1 x    32               786240     100.0%      0.0%      0.0%
 flops    65 x     1 x   442              1551420     100.0%      0.0%      0.0%
 flops   898 x     1 x    33              1600236     100.0%      0.0%      0.0%
 flops    64 x     1 x    32              2584576     100.0%      0.0%      0.0%
 flops    65 x    33 x   442              3792360     100.0%      0.0%      0.0%
 flops   912 x     1 x    33              4875552     100.0%      0.0%      0.0%
 flops    64 x     1 x   442              5035264     100.0%      0.0%      0.0%
 flops    64 x    33 x   442             11202048     100.0%      0.0%      0.0%
 flops    65 x     1 x   456             11203920     100.0%      0.0%      0.0%
 flops   898 x     1 x    32             11781760     100.0%      0.0%      0.0%
 flops   898 x     1 x   442             21433464     100.0%      0.0%      0.0%
 flops    65 x    32 x   442             25742080     100.0%      0.0%      0.0%
 flops    65 x    33 x   456             27387360     100.0%      0.0%      0.0%
 flops    32 x    32 x   442             32587776     100.0%      0.0%      0.0%
 flops   912 x     1 x    32             35896320     100.0%      0.0%      0.0%
 flops    64 x     1 x   456             36363264     100.0%      0.0%      0.0%
 flops   898 x    33 x   442             52392912     100.0%      0.0%      0.0%
 flops   912 x     1 x   442             65302848     100.0%      0.0%      0.0%
 flops    64 x    33 x   456             80898048     100.0%      0.0%      0.0%
 flops   898 x     1 x   456            154786464     100.0%      0.0%      0.0%
 flops   912 x    33 x   442            159629184     100.0%      0.0%      0.0%
 flops    65 x    32 x   456            185902080     100.0%      0.0%      0.0%
 flops     2 x     2 x    32            216399872     100.0%      0.0%      0.0%
 flops    32 x    32 x   456            235339776     100.0%      0.0%      0.0%
 flops    14 x    32 x    32            262176768     100.0%      0.0%      0.0%
 flops    29 x    32 x    32            273678336     100.0%      0.0%      0.0%
 flops   898 x    33 x   456            378366912     100.0%      0.0%      0.0%
 flops     8 x     2 x    32            422682624     100.0%      0.0%      0.0%
 flops     2 x     8 x    32            423854080     100.0%      0.0%      0.0%
 flops   912 x     1 x   456            471598848     100.0%      0.0%      0.0%
 flops     8 x     8 x    32            679444480     100.0%      0.0%      0.0%
 flops    14 x     1 x    14            683861640     100.0%      0.0%      0.0%
 flops    29 x     1 x    14            717976896     100.0%      0.0%      0.0%
 flops    14 x     1 x    29            717976896     100.0%      0.0%      0.0%
 flops    29 x     1 x    29            750585772     100.0%      0.0%      0.0%
 flops   912 x    33 x   456           1152797184     100.0%      0.0%      0.0%
 flops   898 x    32 x   442           1981404672     100.0%      0.0%      0.0%
 flops    64 x    32 x   442           2103721984     100.0%      0.0%      0.0%
 flops    64 x    32 x    32           2717908992     100.0%      0.0%      0.0%
 flops   898 x    32 x    32           5296619520     100.0%      0.0%      0.0%
 flops   912 x    32 x   442           6036885504     100.0%      0.0%      0.0%
 flops    14 x    14 x    32          12147810304     100.0%      0.0%      0.0%
 flops    29 x    14 x    32          12645685248     100.0%      0.0%      0.0%
 flops    14 x    29 x    32          12651505664     100.0%      0.0%      0.0%
 flops    29 x    29 x    32          13428442112     100.0%      0.0%      0.0%
 flops   898 x    32 x   456          14309148672     100.0%      0.0%      0.0%
 flops    64 x    32 x   456          15192489984     100.0%      0.0%      0.0%
 flops   912 x    32 x    32          16137584640     100.0%      0.0%      0.0%
 flops    14 x    32 x    14          43365611520     100.0%      0.0%      0.0%
 flops   912 x    32 x   456          43596693504     100.0%      0.0%      0.0%
 flops    29 x    32 x    14          45528956928     100.0%      0.0%      0.0%
 flops    14 x    32 x    29          45528956928     100.0%      0.0%      0.0%
 flops    29 x    32 x    29          47596778496     100.0%      0.0%      0.0%
 flops inhomo. stacks                     1163474     100.0%      0.0%      0.0%
 flops total                       348.588050E+09     100.0%      0.0%      0.0%
 flops max/rank                     11.722536E+09     100.0%      0.0%      0.0%
 matmuls inhomo. stacks                       937     100.0%      0.0%      0.0%
 matmuls total                           15898072     100.0%      0.0%      0.0%
 number of processed stacks                120753     100.0%      0.0%      0.0%
 average stack size                                   131.7       0.0       0.0
 marketing flops                   402.946097E+09
 -------------------------------------------------------------------------------
 # multiplications                           1019
 max memory usage/rank             416.448512E+06
 # max total images/rank                        2
 # max 3D layers                                1
 # MPI messages exchanged                  684768
 MPI messages size (bytes):
  total size                       141.839909E+09
  min size                           0.000000E+00
  max size                           3.326976E+06
  average size                     207.135719E+03
 MPI breakdown and total messages size (bytes):
             size <=      128              451472                    42336
       128 < size <=     8192               85456                575445920
      8192 < size <=    32768               30464                547235304
     32768 < size <=   131072               43232               4832304064
    131072 < size <=  4194304               74144             135885171296
   4194304 < size <= 16777216                   0                        0
  16777216 < size                               0                        0
 -------------------------------------------------------------------------------

 *** WARNING in dbcsr/mm/dbcsr_mm.F:268 :: Using a non-square number of ***
 *** MPI ranks might lead to poor performance.                          ***
 *** Used ranks: 32                                                     ***
 *** Suggested: 36 64                                                   ***

 -------------------------------------------------------------------------------
 
 MEMORY| Estimated peak process memory [MiB]                                 398

 -------------------------------------------------------------------------------
 -                                                                             -
 -                         MESSAGE PASSING PERFORMANCE                         -
 -                                                                             -
 -------------------------------------------------------------------------------

 ROUTINE             CALLS      AVE VOLUME [Bytes]
 MP_Group              106
 MP_Bcast             1402                1158909.
 MP_Allreduce         7206                    479.
 MP_Sync               127
 MP_Alltoall          5231                1173923.
 MP_ISendRecv         3534                  73707.
 MP_Wait             87316
 MP_comm_split          55
 MP_ISend            49514                 112034.
 MP_IRecv            49310                 112982.
 MP_Recv                 7                 930304.
 MP_Memory           58776
 MP_Write_All            2                 614304.
 -------------------------------------------------------------------------------


 -------------------------------------------------------------------------------
 -                                                                             -
 -                           R E F E R E N C E S                               -
 -                                                                             -
 -------------------------------------------------------------------------------
 
 CP2K version 6.1, the CP2K developers group (2018).
 CP2K is freely available from https://www.cp2k.org/ .

 Schuett, Ole; Messmer, Peter; Hutter, Juerg; VandeVondele, Joost. 
 Electronic Structure Calculations on Graphics Processing Units, John Wiley & Sons, Ltd, 173-190 (2016). 
 GPU-Accelerated Sparse Matrix-Matrix Multiplication for Linear Scaling Density Functional Theory.
 http://dx.doi.org/10.1002/9781118670712.ch8


 Borstnik, U; VandeVondele, J; Weber, V; Hutter, J. 
 PARALLEL COMPUTING, 40 (5-6), 47-58 (2014). 
 Sparse matrix multiplication: The distributed block-compressed sparse
 row library.
 http://dx.doi.org/10.1016/j.parco.2014.03.012


 Hutter, J; Iannuzzi, M; Schiffmann, F; VandeVondele, J. 
 WILEY INTERDISCIPLINARY REVIEWS-COMPUTATIONAL MOLECULAR SCIENCE, 4 (1), 15-25 (2014). 
 CP2K: atomistic simulations of condensed matter systems.
 http://dx.doi.org/10.1002/wcms.1159


 Sabatini, R; Gorni, T; de Gironcoli, S. 
 Phys. Rev. B, 87 (4), 041108(R) (2013). 
 Nonlocal van der Waals density functional made simple and efficient.
 http://dx.doi.org/10.1103/PhysRevB.87.041108


 Guidon, M; Hutter, J; VandeVondele, J. 
 JOURNAL OF CHEMICAL THEORY AND COMPUTATION, 6 (8), 2348-2364 (2010). 
 Auxiliary Density Matrix Methods for Hartree-Fock Exchange Calculations.
 http://dx.doi.org/10.1021/ct1002225


 Guidon, M; Hutter, J; VandeVondele, J. 
 JOURNAL OF CHEMICAL THEORY AND COMPUTATION, 5 (11), 3010-3021 (2009). 
 Robust Periodic Hartree-Fock Exchange for Large-Scale Simulations Using
 Gaussian Basis Sets.
 http://dx.doi.org/10.1021/ct900494g


 Roman-Perez, G; Soler, JM. 
 Phys. Rev. Lett., 103 (9), 096102 (2009). 
 Efficient Implementation of a van der Waals Density Functional:
 Application to Double-Wall Carbon Nanotubes.
 http://dx.doi.org/10.1103/PhysRevLett.103.096102


 Guidon, M; Schiffmann, F; Hutter, J; VandeVondele, J. 
 JOURNAL OF CHEMICAL PHYSICS, 128 (21), 214104 (2008). 
 Ab initio molecular dynamics using hybrid density functionals.
 http://dx.doi.org/10.1063/1.2931945


 VandeVondele, J; Hutter, J. 
 JOURNAL OF CHEMICAL PHYSICS, 127 (11), 114105 (2007). 
 Gaussian basis sets for accurate calculations on molecular systems in
 gas and condensed phases.
 http://dx.doi.org/10.1063/1.2770708


 Krack, M. 
 THEORETICAL CHEMISTRY ACCOUNTS, 114 (1-3), 145-152 (2005). 
 Pseudopotentials for H to Kr optimized for gradient-corrected
 exchange-correlation functionals.
 http://dx.doi.org/10.1007/s00214-005-0655-y


 VandeVondele, J; Krack, M; Mohamed, F; Parrinello, M; Chassaing, T;
 Hutter, J. COMPUTER PHYSICS COMMUNICATIONS, 167 (2), 103-128 (2005). 
 QUICKSTEP: Fast and accurate density functional calculations using a
 mixed Gaussian and plane waves approach.
 http://dx.doi.org/10.1016/j.cpc.2004.12.014


 Frigo, M; Johnson, SG. 
 PROCEEDINGS OF THE IEEE, 93 (2), 216-231 (2005). 
 The design and implementation of FFTW3.
 http://dx.doi.org/10.1109/JPROC.2004.840301


 Heyd, J; Scuseria, GE. 
 JOURNAL OF CHEMICAL PHYSICS, 120 (16), 7274-7280 (2004). 
 Assessment and validation of a screened Coulomb hybrid density
 functional.
 http://dx.doi.org/10.1063/1.1668634


 VandeVondele, J; Hutter, J. 
 JOURNAL OF CHEMICAL PHYSICS, 118 (10), 4365-4369 (2003). 
 An efficient orbital transformation method for electronic structure
 calculations.
 http://dx.doi.org/10.1063/1.1543154


 Hartwigsen, C; Goedecker, S; Hutter, J. 
 PHYSICAL REVIEW B, 58 (7), 3641-3662 (1998). 
 Relativistic separable dual-space Gaussian pseudopotentials from H to Rn.
 http://dx.doi.org/10.1103/PhysRevB.58.3641


 Lippert, G; Hutter, J; Parrinello, M. 
 MOLECULAR PHYSICS, 92 (3), 477-487 (1997). 
 A hybrid Gaussian and plane wave density functional scheme.
 http://dx.doi.org/10.1080/002689797170220


 Perdew, JP; Burke, K; Ernzerhof, M. 
 PHYSICAL REVIEW LETTERS, 77 (18), 3865-3868 (1996). 
 Generalized gradient approximation made simple.
 http://dx.doi.org/10.1103/PhysRevLett.77.3865


 Goedecker, S; Teter, M; Hutter, J. 
 PHYSICAL REVIEW B, 54 (3), 1703-1710 (1996). 
 Separable dual-space Gaussian pseudopotentials.
 http://dx.doi.org/10.1103/PhysRevB.54.1703


 -------------------------------------------------------------------------------
 -                                                                             -
 -                                T I M I N G                                  -
 -                                                                             -
 -------------------------------------------------------------------------------
 SUBROUTINE                       CALLS  ASD         SELF TIME        TOTAL TIME
                                MAXIMUM       AVERAGE  MAXIMUM  AVERAGE  MAXIMUM
 CP2K                                 1  1.0    0.173    0.179  369.126  369.126
 qs_energies                          1  2.0    0.000    0.000  367.814  367.814
 scf_env_do_scf                       1  3.0    0.000    0.000  236.219  236.220
 qs_ks_update_qs_env                 14  5.0    0.000    0.000  191.213  191.215
 rebuild_ks_matrix                   13  6.0    0.000    0.000  191.185  191.188
 qs_ks_build_kohn_sham_matrix        13  7.0    0.002    0.003  191.185  191.188
 dbcsr_multiply_generic            1019  8.4    0.064    0.067  164.720  165.103
 scf_env_do_scf_inner_loop           13  4.0    0.001    0.001  163.063  163.072
 scf_post_calculation_gpw             1  3.0    0.000    0.001  129.709  129.712
 make_lumo                            1  4.0    0.000    0.000  128.025  128.026
 ot_eigensolver                       1  5.0    0.001    0.001  127.570  127.572
 hfx_ks_matrix                       13  8.0    0.000    0.001  121.885  121.954
 integrate_four_center               13  9.0    0.131    0.364  121.855  121.924
 integrate_four_center_main          13 10.0    0.005    0.005  110.343  112.501
 integrate_four_center_bin          832 11.0  110.339  112.497  110.339  112.497
 multiply_cannon                   1019  9.4    0.190    0.206   87.553   88.401
 mp_deallocate_d                  16650 12.5   78.803   79.099   78.803   79.099
 ot_mini                             66  6.4    0.000    0.000   78.448   78.451
 init_scf_loop                        1  4.0    0.000    0.000   73.143   73.143
 qs_ot_get_derivative                34  7.4    0.000    0.000   69.525   69.532
 dbcsr_destroy                    14314 10.2    0.051    0.053   62.009   62.243
 mp_deallocate_i                  12819 12.5   58.638   59.387   58.638   59.387
 make_m2s                          2038  9.4    0.060    0.062   56.957   57.391
 dbcsr_data_release               69653 12.0    0.446    0.526   46.495   46.800
 qs_vxc_create                       26  8.0    0.002    0.005   46.592   46.672
 make_images                       2038 10.4    0.100    0.109   36.241   36.722
 xc_rho_set_and_dset_create          26 10.0    0.115    0.139   32.259   33.891
 qs_ot_get_p                         69  6.4    0.001    0.001   32.618   33.010
 qs_scf_new_mos                      13  5.0    0.000    0.000   32.186   32.196
 qs_scf_loop_do_ot                   13  6.0    0.000    0.000   32.186   32.196
 setup_buffer_matrices             2038 10.4    0.040    0.041   30.248   30.304
 pw_transfer                        936 10.0    0.064    0.076   28.781   30.044
 ot_scf_mini                         13  7.0    0.001    0.001   29.607   29.613
 fft_wrap_pw1pw2                    851 11.0    0.008    0.009   28.374   29.524
 dbcsr_create_new                 14863 11.0    0.080    0.082   28.993   29.293
 dbcsr_make_index_exist           14863 12.0    0.041    0.042   28.284   28.618
 qs_ot_get_derivative_diag           19  8.0    0.001    0.001   28.580   28.597
 xc_vxc_pw_create                    14  9.0    0.076    0.087   26.044   26.044
 fft_wrap_pw1pw2_400                221 12.1    2.372    2.878   23.867   25.377
 qs_ot_get_derivative_taylor         15  8.9    0.001    0.001   24.581   24.586
 xc_functional_eval                  65 11.0    0.001    0.001   21.626   22.977
 fft3d_ps                           851 13.0    9.965   11.588   21.219   22.766
 dbcsr_make_images_dense           1752 10.7    0.030    0.031   20.626   20.694
 qs_ot_get_orbitals                  68  6.4    0.000    0.000   20.002   20.017
 calculate_rho_elec                  27  7.4    6.103    6.331   19.056   19.068
 dbcsr_special_finalize            3057 11.4    0.012    0.013   15.406   15.852
 mp_waitall_1                     85402 11.8   13.831   15.377   13.831   15.377
 buffer_matrices_ensure_size       2038 10.4    0.373    0.585   14.915   15.214
 xc_exc_calc                         12  9.0    0.022    0.023   14.204   14.204
 quick_finalize                    2997 12.4    0.015    0.018   13.538   13.980
 dbcsr_switch_data_area            8001 12.4    0.010    0.010   12.314   12.500
 xpbe_hole_t_c_lr_lda_eval           26 12.0   11.798   12.496   11.798   12.496
 multiply_cannon_metrocomm3        8152 10.4    0.037    0.041   10.016   12.084
 qs_rho_update_rho                   14  5.0    0.000    0.000   11.681   11.687
 density_rs2pw                       27  8.4    0.002    0.003   11.413   11.621
 qs_ot_p2m_diag                      40  7.0    0.001    0.001   11.530   11.541
 mp_alltoall_z22v                   851 15.0    7.812   11.062    7.812   11.062
 admm_mo_calc_rho_aux                13  8.0    0.000    0.000   10.759   10.806
 apply_preconditioner_dbcsr          37  8.4    0.000    0.000    9.545    9.701
 apply_single                        37  9.4    0.000    0.000    9.545    9.701
 xwpbe_lda_eval                      26 12.0    8.120    8.958    8.120    8.958
 ot_new_cg_direction                 34  7.4    0.000    0.000    8.875    8.875
 qs_ot_p2m_taylor                    29  7.9    0.001    0.001    8.695    8.710
 rs_pw_transfer                     173  9.8    0.002    0.002    8.306    8.544
 sum_up_and_integrate                 7  8.0    0.078    0.095    8.010    8.018
 integrate_v_rspace                  14  9.0    2.897    2.965    7.930    7.941
 -------------------------------------------------------------------------------

 The number of warnings for this run is : 2
 
 -------------------------------------------------------------------------------
  **** **** ******  **  PROGRAM ENDED AT                 2024-03-16 15:58:08.426
 ***** ** ***  *** **   PROGRAM RAN ON                                      tc23
 **    ****   ******    PROGRAM RAN BY                                  fambrosi
 ***** **    ** ** **   PROGRAM PROCESS ID                                 15449
  **** **  *******  **  PROGRAM STOPPED IN          /scratch/fambrosi.55144.tccw
