 DBCSR| Multiplication driver                                               BLAS
 DBCSR| Multrec recursion limit                                              512
 DBCSR| Multiplication stack size                                           1000
 DBCSR| Maximum elements for images                                    UNLIMITED
 DBCSR| Multiplicative factor virtual images                                   1
 DBCSR| Multiplication size stacks                                             3
 DBCSR| Number of 3D layers                                               SINGLE
 DBCSR| Use MPI memory allocation                                              T
 DBCSR| Use RMA algorithm                                                      F
 DBCSR| Use Communication thread                                               T
 DBCSR| Communication thread load                                             87


  **** **** ******  **  PROGRAM STARTED AT               2024-03-16 15:58:12.748
 ***** ** ***  *** **   PROGRAM STARTED ON                                  tc23
 **    ****   ******    PROGRAM STARTED BY                              fambrosi
 ***** **    ** ** **   PROGRAM PROCESS ID                                 15708
  **** **  *******  **  PROGRAM STARTED IN          /scratch/fambrosi.55146.tccw

 CP2K| version string:                                          CP2K version 6.1
 CP2K| source code revision number:                                    svn:18464
 CP2K| cp2kflags: libint fftw3 libxc parallel mpi3 scalapack has_no_shared_glibc
 CP2K|             libderiv_max_am1=5 libint_max_am=6 max_contr=4 mkl
 CP2K| is freely available from                            https://www.cp2k.org/
 CP2K| Program compiled at                         Mon Jun 25 12:26:44 CEST 2018
 CP2K| Program compiled on                                                  tccw
 CP2K| Program compiled for                     Linux-x86-64-intel.MPI-OPENMP.O2
 CP2K| Data directory path                           /home/edoardo/cp2k-6.1/data
 CP2K| Input file name        /home/fambrosi/hydroxyl/test-koopman/anion/hyb5/el
 
 GLOBAL| Force Environment number                                              1
 GLOBAL| Basis set file name               /usr/local/cp2k-6.1/data/BASIS_MOLOPT
 GLOBAL| Potential file name             /usr/local/cp2k-6.1/data/GTH_POTENTIALS
 GLOBAL| MM Potential file name                                     MM_POTENTIAL
 GLOBAL| Coordinate file name                                      __STD_INPUT__
 GLOBAL| Method name                                                        CP2K
 GLOBAL| Project name                                               water+I-.dyn
 GLOBAL| Preferred FFT library                                             FFTW3
 GLOBAL| Preferred diagonalization lib.                                       SL
 GLOBAL| Run type                                                         ENERGY
 GLOBAL| All-to-all communication in single precision                          F
 GLOBAL| FFTs using library dependent lengths                                  T
 GLOBAL| Global print level                                                  LOW
 GLOBAL| Total number of message passing processes                            32
 GLOBAL| Number of threads for this process                                    1
 GLOBAL| This output is from process                                           0
 GLOBAL| CPU model name :  Intel(R) Xeon(R) CPU E5-2683 v4 @ 2.10GHz

 MEMORY| system memory details [Kb]
 MEMORY|                        rank 0           min           max       average
 MEMORY| MemTotal            264564380     264564380     264564380     264564380
 MEMORY| MemFree              33805432      33805432      33805432      33805432
 MEMORY| Buffers                196880        196880        196880        196880
 MEMORY| Cached              221283100     221283100     221283100     221283100
 MEMORY| Slab                  6357448       6357448       6357448       6357448
 MEMORY| SReclaimable          6283072       6283072       6283072       6283072
 MEMORY| MemLikelyFree       261568484     261568484     261568484     261568484

 
 GENERATE|  Preliminary Number of Bonds generated:                             0
 GENERATE|  Achieved consistency in connectivity generation.

 *******************************************************************************
 *******************************************************************************
 **                                                                           **
 **     #####                         ##              ##                      **
 **    ##   ##            ##          ##              ##                      **
 **   ##     ##                       ##            ######                    **
 **   ##     ##  ##   ##  ##   #####  ##  ##   ####   ##    #####    #####    **
 **   ##     ##  ##   ##  ##  ##      ## ##   ##      ##   ##   ##  ##   ##   **
 **   ##  ## ##  ##   ##  ##  ##      ####     ###    ##   ######   ######    **
 **    ##  ###   ##   ##  ##  ##      ## ##      ##   ##   ##       ##        **
 **     #######   #####   ##   #####  ##  ##  ####    ##    #####   ##        **
 **           ##                                                    ##        **
 **                                                                           **
 **                                                ... make the atoms dance   **
 **                                                                           **
 **            Copyright (C) by CP2K developers group (2000 - 2018)           **
 **                                                                           **
 *******************************************************************************


 TOTAL NUMBERS AND MAXIMUM NUMBERS

  Total number of            - Atomic kinds:                                   2
                             - Atoms:                                        191
                             - Shell sets:                                  1146
                             - Shells:                                      1338
                             - Primitive Cartesian functions:               1528
                             - Cartesian basis functions:                   4081
                             - Spherical basis functions:                   3634

  Maximum angular momentum of- Orbital basis functions:                        3
                             - Local part of the GTH pseudopotential:          2
                             - Non-local part of the GTH pseudopotential:      0

  AUX_FIT ADMM-Basis: 
  Total number of            - Shell sets:                                   510
                             - Shells:                                       510
                             - Primitive Cartesian functions:                765
                             - Cartesian basis functions:                    766
                             - Spherical basis functions:                    766
                               Maximum angular momentum                        1


 SCF PARAMETERS         Density guess:                                   RESTART
                        --------------------------------------------------------
                        max_scf:                                              50
                        max_scf_history:                                       0
                        max_diis:                                              4
                        --------------------------------------------------------
                        eps_scf:                                        1.00E-05
                        eps_scf_history:                                0.00E+00
                        eps_diis:                                       1.00E-01
                        eps_eigval:                                     1.00E-05
                        --------------------------------------------------------
                        level_shift [a.u.]:                                 0.00
                        --------------------------------------------------------
                        Outer loop SCF in use 
                        No variables optimised in outer loop
                        eps_scf                                         1.00E-05
                        max_scf                                               50
                        No outer loop optimization
                        step_size                                       5.00E-01

 Number of electrons:                                                        512
 Number of occupied orbitals:                                                256
 Number of molecular orbitals:                                               256

 Number of orbital functions:                                               3634
 Number of independent orbital functions:                                   3634

 Extrapolation method: initial_guess


 SCF WAVEFUNCTION OPTIMIZATION

  ----------------------------------- OT ---------------------------------------
  Minimizer      : CG                  : conjugate gradient
  Preconditioner : FULL_SINGLE_INVERSE : inversion of 
                                         H + eS - 2*(Sc)(c^T*H*c+const)(Sc)^T
  Precond_solver : DEFAULT
  Line search    : 2PNT                : 2 energies, one gradient
  stepsize       :    0.08000000                  energy_gap     :    0.08000000
  eps_taylor     :   0.10000E-15                  max_taylor     :             4
  ----------------------------------- OT ---------------------------------------

  Step     Update method      Time    Convergence         Total energy    Change
  ------------------------------------------------------------------------------

 *** WARNING in hfx_energy_potential.F:605 :: The Kohn Sham matrix is not  ***
 *** 100% occupied. This may result in incorrect Hartree-Fock results. Try ***
 *** to decrease EPS_PGF_ORB and EPS_FILTER_MATRIX in the QS section. For  ***
 *** more information see FAQ: https://www.cp2k.org/faq:hfx_eps_warning    ***

     1 OT CG       0.80E-01   75.1     0.00142648     -1099.4964697259 -1.10E+03
     2 OT LS       0.19E+00   10.3                    -1099.6152340369
     3 OT CG       0.19E+00   16.1     0.00048059     -1099.6717673802 -1.75E-01
     4 OT LS       0.83E-01   10.3                    -1099.6671702098
     5 OT CG       0.83E-01   16.2     0.00017858     -1099.6806880583 -8.92E-03
     6 OT LS       0.92E-01   10.2                    -1099.6820359675
     7 OT CG       0.92E-01   15.9     0.00007222     -1099.6820477636 -1.36E-03
     8 OT LS       0.92E-01   10.3                    -1099.6822705487
     9 OT CG       0.92E-01   16.3     0.00003185     -1099.6822705496 -2.23E-04
    10 OT LS       0.91E-01   10.3                    -1099.6823135611
    11 OT CG       0.91E-01   16.0     0.00001189     -1099.6823135631 -4.30E-05
    12 OT LS       0.10E+00   10.3                    -1099.6823202383
    13 OT CG       0.10E+00   16.5     0.00000476     -1099.6823203234 -6.76E-06

  *** SCF run converged in    13 steps ***


  Electronic density on regular grids:       -511.9999999999        0.0000000001
  Core density on regular grids:              510.9999999998       -0.0000000002
  Total charge density on r-space grids:       -1.0000000001
  Total charge density g-space grids:          -1.0000000001

  Overlap energy of the core charge distribution:               0.00000227219952
  Self energy of the core charge distribution:              -2836.80744583234036
  Core Hamiltonian energy:                                    823.98405157874572
  Hartree energy:                                            1181.38934309002343
  Exchange-correlation energy:                               -170.27707174242883
  Hartree-Fock Exchange energy:                              -100.11653346083025
  Dispersion energy:                                            2.14533377123834

  Total energy:                                             -1099.68232032339233

  outer SCF iter =    1 RMS gradient =   0.48E-05 energy =      -1099.6823203234
  outer SCF loop converged in   1 iterations or   13 steps

  
  Eigenvalues of the occupied subspace spin            1
 ---------------------------------------------
      -1.02058875     -1.01986297     -1.01487062     -1.01362634
      -1.01315004     -1.01236960     -1.00803535     -1.00515799
      -1.00001727     -0.99967754     -0.99830507     -0.99716292
      -0.99637818     -0.99560052     -0.99435095     -0.99324396
      -0.99059326     -0.99000395     -0.98866691     -0.98861187
      -0.98722460     -0.98634723     -0.98548859     -0.98435240
      -0.98326964     -0.98184944     -0.98128124     -0.98004393
      -0.97979054     -0.97902221     -0.97828557     -0.97725742
      -0.97635687     -0.97491760     -0.97421242     -0.97339454
      -0.97248011     -0.97185707     -0.97106746     -0.97067480
      -0.97009309     -0.96971537     -0.96908011     -0.96837800
      -0.96690940     -0.96617055     -0.96395340     -0.96237003
      -0.96074843     -0.95955968     -0.95650296     -0.95459072
      -0.95372421     -0.95030426     -0.94935109     -0.94796098
      -0.94704256     -0.94237365     -0.94126719     -0.93898102
      -0.93489571     -0.93319722     -0.92556094     -0.88253915
      -0.50312790     -0.49895903     -0.48709898     -0.48517824
      -0.48375689     -0.48263339     -0.48008223     -0.47974118
      -0.47847334     -0.47669116     -0.47622394     -0.47577048
      -0.47492248     -0.47459125     -0.47355667     -0.47290476
      -0.47083396     -0.46885129     -0.46803945     -0.46665219
      -0.46618449     -0.46546203     -0.46484489     -0.46376935
      -0.46324965     -0.46228136     -0.46174400     -0.46105811
      -0.45994163     -0.45899810     -0.45822738     -0.45800958
      -0.45425994     -0.45260048     -0.45223133     -0.45082664
      -0.45081166     -0.44909602     -0.44868269     -0.44781981
      -0.44694080     -0.44596554     -0.44486631     -0.44432257
      -0.44303190     -0.44227195     -0.44135157     -0.44065357
      -0.43993595     -0.43951669     -0.43739969     -0.43679401
      -0.43593397     -0.43491690     -0.43241788     -0.42966773
      -0.42825982     -0.42475274     -0.42464342     -0.42099016
      -0.42038220     -0.41913584     -0.41802953     -0.39068935
      -0.38593691     -0.38206867     -0.37818225     -0.37307013
      -0.37242145     -0.36715385     -0.36565453     -0.36514024
      -0.36384266     -0.36335398     -0.36014511     -0.35940538
      -0.35803824     -0.35626111     -0.35376840     -0.35205891
      -0.34948645     -0.34821639     -0.34695423     -0.34508532
      -0.34490899     -0.34268415     -0.34142711     -0.33982317
      -0.33868714     -0.33800910     -0.33484441     -0.33310416
      -0.33071089     -0.32994690     -0.32875071     -0.32858845
      -0.32607851     -0.32364943     -0.32316620     -0.32096046
      -0.32002097     -0.31893995     -0.31763755     -0.31529043
      -0.31444501     -0.31356561     -0.31226022     -0.31194626
      -0.31098776     -0.30775009     -0.30748990     -0.30593039
      -0.30393977     -0.30255195     -0.30172060     -0.30043455
      -0.29902692     -0.29702369     -0.29609063     -0.29296717
      -0.29185995     -0.28978707     -0.28877838     -0.28392728
      -0.28344076     -0.28127224     -0.27797563     -0.27544324
      -0.27479357     -0.27339442     -0.27074033     -0.27024277
      -0.26902246     -0.26750185     -0.26612646     -0.26466504
      -0.26248013     -0.26161743     -0.26047295     -0.26022519
      -0.25955742     -0.25905822     -0.25797733     -0.25764308
      -0.25685894     -0.25628871     -0.25557506     -0.25474075
      -0.25390657     -0.25359279     -0.25275548     -0.25199402
      -0.25153238     -0.25073028     -0.24942546     -0.24886221
      -0.24874998     -0.24827034     -0.24764752     -0.24657845
      -0.24545900     -0.24535478     -0.24506839     -0.24420342
      -0.24303838     -0.24281803     -0.24183639     -0.24109009
      -0.24046137     -0.23971010     -0.23875918     -0.23847037
      -0.23719740     -0.23632411     -0.23500127     -0.23412646
      -0.23338259     -0.23291599     -0.23220758     -0.22860307
      -0.22809555     -0.22718636     -0.22575082     -0.22419916
      -0.22349210     -0.22155398     -0.21992627     -0.21649728
      -0.20886191     -0.20577732     -0.19539824     -0.18489761
 Fermi Energy [eV] :   -5.031320
  
  Lowest Eigenvalues of the unoccupied subspace spin            1
 -----------------------------------------------------
  Reached convergence in           53  iterations 
       0.10343080
  
 HOMO - LUMO gap [eV] :    7.845815

 ENERGY| Total FORCE_EVAL ( QS ) energy (a.u.):            -1099.682320323392332


 -------------------------------------------------------------------------------
 -                                                                             -
 -                                DBCSR STATISTICS                             -
 -                                                                             -
 -------------------------------------------------------------------------------
 COUNTER                                    TOTAL       BLAS       SMM       ACC
 flops     1 x     1 x   442                91052     100.0%      0.0%      0.0%
 flops    65 x     1 x    33               115830     100.0%      0.0%      0.0%
 flops    64 x     1 x    33               342144     100.0%      0.0%      0.0%
 flops     1 x     1 x   456               657552     100.0%      0.0%      0.0%
 flops    65 x     1 x    32               786240     100.0%      0.0%      0.0%
 flops    65 x     1 x   442              1551420     100.0%      0.0%      0.0%
 flops   898 x     1 x    33              1600236     100.0%      0.0%      0.0%
 flops    64 x     1 x    32              2584576     100.0%      0.0%      0.0%
 flops    65 x    33 x   442              3792360     100.0%      0.0%      0.0%
 flops   912 x     1 x    33              4875552     100.0%      0.0%      0.0%
 flops    64 x     1 x   442              5035264     100.0%      0.0%      0.0%
 flops    64 x    33 x   442             11202048     100.0%      0.0%      0.0%
 flops    65 x     1 x   456             11203920     100.0%      0.0%      0.0%
 flops   898 x     1 x    32             11781760     100.0%      0.0%      0.0%
 flops   898 x     1 x   442             21433464     100.0%      0.0%      0.0%
 flops    65 x    32 x   442             25742080     100.0%      0.0%      0.0%
 flops    65 x    33 x   456             27387360     100.0%      0.0%      0.0%
 flops    32 x    32 x   442             32587776     100.0%      0.0%      0.0%
 flops   912 x     1 x    32             35896320     100.0%      0.0%      0.0%
 flops    64 x     1 x   456             36363264     100.0%      0.0%      0.0%
 flops   898 x    33 x   442             52392912     100.0%      0.0%      0.0%
 flops   912 x     1 x   442             65302848     100.0%      0.0%      0.0%
 flops    64 x    33 x   456             80898048     100.0%      0.0%      0.0%
 flops   898 x     1 x   456            154786464     100.0%      0.0%      0.0%
 flops   912 x    33 x   442            159629184     100.0%      0.0%      0.0%
 flops    65 x    32 x   456            185902080     100.0%      0.0%      0.0%
 flops     2 x     2 x    32            216399872     100.0%      0.0%      0.0%
 flops    32 x    32 x   456            235339776     100.0%      0.0%      0.0%
 flops    14 x    32 x    32            262176768     100.0%      0.0%      0.0%
 flops    29 x    32 x    32            273678336     100.0%      0.0%      0.0%
 flops   898 x    33 x   456            378366912     100.0%      0.0%      0.0%
 flops     2 x     8 x    32            422895616     100.0%      0.0%      0.0%
 flops     8 x     2 x    32            423002112     100.0%      0.0%      0.0%
 flops   912 x     1 x   456            471598848     100.0%      0.0%      0.0%
 flops    14 x     1 x    14            683434360     100.0%      0.0%      0.0%
 flops     8 x     8 x    32            684982272     100.0%      0.0%      0.0%
 flops    29 x     1 x    14            717268832     100.0%      0.0%      0.0%
 flops    14 x     1 x    29            717268832     100.0%      0.0%      0.0%
 flops    29 x     1 x    29            750952448     100.0%      0.0%      0.0%
 flops   912 x    33 x   456           1152797184     100.0%      0.0%      0.0%
 flops   898 x    32 x   442           1981404672     100.0%      0.0%      0.0%
 flops    64 x    32 x   442           2103721984     100.0%      0.0%      0.0%
 flops    64 x    32 x    32           2717908992     100.0%      0.0%      0.0%
 flops   898 x    32 x    32           5296619520     100.0%      0.0%      0.0%
 flops   912 x    32 x   442           6036885504     100.0%      0.0%      0.0%
 flops    14 x    14 x    32          12140785664     100.0%      0.0%      0.0%
 flops    14 x    29 x    32          12634044416     100.0%      0.0%      0.0%
 flops    29 x    14 x    32          12639864832     100.0%      0.0%      0.0%
 flops    29 x    29 x    32          13434470400     100.0%      0.0%      0.0%
 flops   898 x    32 x   456          14309148672     100.0%      0.0%      0.0%
 flops    64 x    32 x   456          15192489984     100.0%      0.0%      0.0%
 flops   912 x    32 x    32          16137584640     100.0%      0.0%      0.0%
 flops    14 x    32 x    14          43338516480     100.0%      0.0%      0.0%
 flops   912 x    32 x   456          43596693504     100.0%      0.0%      0.0%
 flops    29 x    32 x    14          45484056576     100.0%      0.0%      0.0%
 flops    14 x    32 x    29          45484056576     100.0%      0.0%      0.0%
 flops    29 x    32 x    29          47620030464     100.0%      0.0%      0.0%
 flops inhomo. stacks                     1163474     100.0%      0.0%      0.0%
 flops total                       348.473550E+09     100.0%      0.0%      0.0%
 flops max/rank                     11.720028E+09     100.0%      0.0%      0.0%
 matmuls inhomo. stacks                       937     100.0%      0.0%      0.0%
 matmuls total                           15889656     100.0%      0.0%      0.0%
 number of processed stacks                120753     100.0%      0.0%      0.0%
 average stack size                                   131.6       0.0       0.0
 marketing flops                   402.946097E+09
 -------------------------------------------------------------------------------
 # multiplications                           1019
 max memory usage/rank             416.444416E+06
 # max total images/rank                        2
 # max 3D layers                                1
 # MPI messages exchanged                  684768
 MPI messages size (bytes):
  total size                       141.788037E+09
  min size                           0.000000E+00
  max size                           3.326976E+06
  average size                     207.059969E+03
 MPI breakdown and total messages size (bytes):
             size <=      128              451472                    42336
       128 < size <=     8192               85456                575445920
      8192 < size <=    32768               30464                547235304
     32768 < size <=   131072               43232               4832304064
    131072 < size <=  4194304               74144             135833580512
   4194304 < size <= 16777216                   0                        0
  16777216 < size                               0                        0
 -------------------------------------------------------------------------------

 *** WARNING in dbcsr/mm/dbcsr_mm.F:268 :: Using a non-square number of ***
 *** MPI ranks might lead to poor performance.                          ***
 *** Used ranks: 32                                                     ***
 *** Suggested: 36 64                                                   ***

 -------------------------------------------------------------------------------
 
 MEMORY| Estimated peak process memory [MiB]                                 398

 -------------------------------------------------------------------------------
 -                                                                             -
 -                         MESSAGE PASSING PERFORMANCE                         -
 -                                                                             -
 -------------------------------------------------------------------------------

 ROUTINE             CALLS      AVE VOLUME [Bytes]
 MP_Group              106
 MP_Bcast             1423                1141999.
 MP_Allreduce         7267                    551.
 MP_Sync               127
 MP_Alltoall          5231                1173655.
 MP_ISendRecv         3534                  73693.
 MP_Wait             87316
 MP_comm_split          55
 MP_ISend            49514                 112026.
 MP_IRecv            49310                 113004.
 MP_Recv                 7                 930304.
 MP_Memory           58776
 MP_Write_All            2                 614304.
 -------------------------------------------------------------------------------


 -------------------------------------------------------------------------------
 -                                                                             -
 -                           R E F E R E N C E S                               -
 -                                                                             -
 -------------------------------------------------------------------------------
 
 CP2K version 6.1, the CP2K developers group (2018).
 CP2K is freely available from https://www.cp2k.org/ .

 Schuett, Ole; Messmer, Peter; Hutter, Juerg; VandeVondele, Joost. 
 Electronic Structure Calculations on Graphics Processing Units, John Wiley & Sons, Ltd, 173-190 (2016). 
 GPU-Accelerated Sparse Matrix-Matrix Multiplication for Linear Scaling Density Functional Theory.
 http://dx.doi.org/10.1002/9781118670712.ch8


 Borstnik, U; VandeVondele, J; Weber, V; Hutter, J. 
 PARALLEL COMPUTING, 40 (5-6), 47-58 (2014). 
 Sparse matrix multiplication: The distributed block-compressed sparse
 row library.
 http://dx.doi.org/10.1016/j.parco.2014.03.012


 Hutter, J; Iannuzzi, M; Schiffmann, F; VandeVondele, J. 
 WILEY INTERDISCIPLINARY REVIEWS-COMPUTATIONAL MOLECULAR SCIENCE, 4 (1), 15-25 (2014). 
 CP2K: atomistic simulations of condensed matter systems.
 http://dx.doi.org/10.1002/wcms.1159


 Sabatini, R; Gorni, T; de Gironcoli, S. 
 Phys. Rev. B, 87 (4), 041108(R) (2013). 
 Nonlocal van der Waals density functional made simple and efficient.
 http://dx.doi.org/10.1103/PhysRevB.87.041108


 Guidon, M; Hutter, J; VandeVondele, J. 
 JOURNAL OF CHEMICAL THEORY AND COMPUTATION, 6 (8), 2348-2364 (2010). 
 Auxiliary Density Matrix Methods for Hartree-Fock Exchange Calculations.
 http://dx.doi.org/10.1021/ct1002225


 Guidon, M; Hutter, J; VandeVondele, J. 
 JOURNAL OF CHEMICAL THEORY AND COMPUTATION, 5 (11), 3010-3021 (2009). 
 Robust Periodic Hartree-Fock Exchange for Large-Scale Simulations Using
 Gaussian Basis Sets.
 http://dx.doi.org/10.1021/ct900494g


 Roman-Perez, G; Soler, JM. 
 Phys. Rev. Lett., 103 (9), 096102 (2009). 
 Efficient Implementation of a van der Waals Density Functional:
 Application to Double-Wall Carbon Nanotubes.
 http://dx.doi.org/10.1103/PhysRevLett.103.096102


 Guidon, M; Schiffmann, F; Hutter, J; VandeVondele, J. 
 JOURNAL OF CHEMICAL PHYSICS, 128 (21), 214104 (2008). 
 Ab initio molecular dynamics using hybrid density functionals.
 http://dx.doi.org/10.1063/1.2931945


 VandeVondele, J; Hutter, J. 
 JOURNAL OF CHEMICAL PHYSICS, 127 (11), 114105 (2007). 
 Gaussian basis sets for accurate calculations on molecular systems in
 gas and condensed phases.
 http://dx.doi.org/10.1063/1.2770708


 Krack, M. 
 THEORETICAL CHEMISTRY ACCOUNTS, 114 (1-3), 145-152 (2005). 
 Pseudopotentials for H to Kr optimized for gradient-corrected
 exchange-correlation functionals.
 http://dx.doi.org/10.1007/s00214-005-0655-y


 VandeVondele, J; Krack, M; Mohamed, F; Parrinello, M; Chassaing, T;
 Hutter, J. COMPUTER PHYSICS COMMUNICATIONS, 167 (2), 103-128 (2005). 
 QUICKSTEP: Fast and accurate density functional calculations using a
 mixed Gaussian and plane waves approach.
 http://dx.doi.org/10.1016/j.cpc.2004.12.014


 Frigo, M; Johnson, SG. 
 PROCEEDINGS OF THE IEEE, 93 (2), 216-231 (2005). 
 The design and implementation of FFTW3.
 http://dx.doi.org/10.1109/JPROC.2004.840301


 Heyd, J; Scuseria, GE. 
 JOURNAL OF CHEMICAL PHYSICS, 120 (16), 7274-7280 (2004). 
 Assessment and validation of a screened Coulomb hybrid density
 functional.
 http://dx.doi.org/10.1063/1.1668634


 VandeVondele, J; Hutter, J. 
 JOURNAL OF CHEMICAL PHYSICS, 118 (10), 4365-4369 (2003). 
 An efficient orbital transformation method for electronic structure
 calculations.
 http://dx.doi.org/10.1063/1.1543154


 Hartwigsen, C; Goedecker, S; Hutter, J. 
 PHYSICAL REVIEW B, 58 (7), 3641-3662 (1998). 
 Relativistic separable dual-space Gaussian pseudopotentials from H to Rn.
 http://dx.doi.org/10.1103/PhysRevB.58.3641


 Lippert, G; Hutter, J; Parrinello, M. 
 MOLECULAR PHYSICS, 92 (3), 477-487 (1997). 
 A hybrid Gaussian and plane wave density functional scheme.
 http://dx.doi.org/10.1080/002689797170220


 Perdew, JP; Burke, K; Ernzerhof, M. 
 PHYSICAL REVIEW LETTERS, 77 (18), 3865-3868 (1996). 
 Generalized gradient approximation made simple.
 http://dx.doi.org/10.1103/PhysRevLett.77.3865


 Goedecker, S; Teter, M; Hutter, J. 
 PHYSICAL REVIEW B, 54 (3), 1703-1710 (1996). 
 Separable dual-space Gaussian pseudopotentials.
 http://dx.doi.org/10.1103/PhysRevB.54.1703


 -------------------------------------------------------------------------------
 -                                                                             -
 -                                T I M I N G                                  -
 -                                                                             -
 -------------------------------------------------------------------------------
 SUBROUTINE                       CALLS  ASD         SELF TIME        TOTAL TIME
                                MAXIMUM       AVERAGE  MAXIMUM  AVERAGE  MAXIMUM
 CP2K                                 1  1.0    0.176    0.186  367.884  367.884
 qs_energies                          1  2.0    0.000    0.000  366.560  366.560
 scf_env_do_scf                       1  3.0    0.000    0.000  234.741  234.742
 qs_ks_update_qs_env                 14  5.0    0.000    0.000  190.319  190.322
 rebuild_ks_matrix                   13  6.0    0.000    0.000  190.290  190.293
 qs_ks_build_kohn_sham_matrix        13  7.0    0.002    0.003  190.290  190.293
 dbcsr_multiply_generic            1019  8.4    0.064    0.066  164.123  164.515
 scf_env_do_scf_inner_loop           13  4.0    0.001    0.001  161.954  161.964
 scf_post_calculation_gpw             1  3.0    0.000    0.001  129.906  129.908
 make_lumo                            1  4.0    0.000    0.000  128.198  128.199
 ot_eigensolver                       1  5.0    0.001    0.001  127.722  127.724
 hfx_ks_matrix                       13  8.0    0.000    0.001  120.587  120.658
 integrate_four_center               13  9.0    0.117    0.340  120.552  120.622
 integrate_four_center_main          13 10.0    0.005    0.005  110.574  111.975
 integrate_four_center_bin          832 11.0  110.569  111.970  110.569  111.970
 multiply_cannon                   1019  9.4    0.187    0.206   87.839   88.553
 mp_deallocate_d                  16650 12.5   78.555   78.997   78.555   78.997
 ot_mini                             66  6.4    0.000    0.000   78.389   78.391
 init_scf_loop                        1  4.0    0.000    0.000   72.774   72.774
 qs_ot_get_derivative                34  7.4    0.000    0.000   69.537   69.543
 dbcsr_destroy                    14353 10.2    0.051    0.053   62.055   62.244
 mp_deallocate_i                  12819 12.5   58.666   59.324   58.666   59.324
 make_m2s                          2038  9.4    0.060    0.063   56.600   57.011
 qs_vxc_create                       26  8.0    0.002    0.004   47.142   47.231
 dbcsr_data_release               69852 12.0    0.435    0.502   46.302   46.471
 make_images                       2038 10.4    0.100    0.108   35.897   36.268
 xc_rho_set_and_dset_create          26 10.0    0.122    0.148   32.438   34.324
 qs_ot_get_p                         69  6.4    0.001    0.001   32.679   33.103
 qs_scf_new_mos                      13  5.0    0.000    0.000   31.424   31.437
 qs_scf_loop_do_ot                   13  6.0    0.000    0.000   31.424   31.436
 pw_transfer                        936 10.0    0.064    0.080   29.365   30.898
 fft_wrap_pw1pw2                    851 11.0    0.008    0.010   28.947   30.364
 setup_buffer_matrices             2038 10.4    0.040    0.041   30.267   30.339
 dbcsr_create_new                 14902 11.0    0.080    0.084   28.993   29.199
 ot_scf_mini                         13  7.0    0.001    0.001   28.972   28.980
 dbcsr_make_index_exist           14902 12.0    0.041    0.042   28.282   28.534
 qs_ot_get_derivative_diag           19  8.0    0.001    0.001   28.128   28.135
 xc_vxc_pw_create                    14  9.0    0.072    0.082   26.439   26.439
 fft_wrap_pw1pw2_400                221 12.1    2.300    2.768   24.464   26.320
 qs_ot_get_derivative_taylor         15  8.9    0.001    0.001   24.852   24.860
 fft3d_ps                           851 13.0   10.250   11.871   21.840   23.318
 xc_functional_eval                  65 11.0    0.001    0.001   21.641   23.179
 dbcsr_make_images_dense           1752 10.7    0.030    0.031   20.613   20.703
 qs_ot_get_orbitals                  68  6.4    0.000    0.000   19.443   19.456
 calculate_rho_elec                  27  7.4    6.110    6.299   19.087   19.093
 dbcsr_special_finalize            3057 11.4    0.012    0.012   15.248   15.643
 mp_waitall_1                     85402 11.8   13.995   15.577   13.995   15.577
 buffer_matrices_ensure_size       2038 10.4    0.398    0.665   14.902   15.270
 xc_exc_calc                         12  9.0    0.022    0.023   14.356   14.356
 quick_finalize                    2997 12.4    0.015    0.017   13.363   13.752
 xpbe_hole_t_c_lr_lda_eval           26 12.0   11.805   12.605   11.805   12.605
 multiply_cannon_metrocomm3        8152 10.4    0.037    0.040   10.208   12.278
 dbcsr_switch_data_area            8001 12.4    0.010    0.010   12.149   12.275
 qs_rho_update_rho                   14  5.0    0.000    0.000   11.706   11.713
 mp_alltoall_z22v                   851 15.0    8.170   11.655    8.170   11.655
 density_rs2pw                       27  8.4    0.002    0.003   11.421   11.646
 qs_ot_p2m_diag                      40  7.0    0.001    0.001   11.322   11.334
 admm_mo_calc_rho_aux                13  8.0    0.000    0.000   10.659   10.707
 apply_preconditioner_dbcsr          37  8.4    0.000    0.000    9.514    9.645
 apply_single                        37  9.4    0.000    0.000    9.514    9.644
 xwpbe_lda_eval                      26 12.0    8.126    9.181    8.126    9.181
 qs_ot_p2m_taylor                    29  7.9    0.001    0.001    8.847    8.857
 ot_new_cg_direction                 34  7.4    0.000    0.000    8.812    8.813
 rs_pw_transfer                     173  9.8    0.002    0.002    8.207    8.428
 sum_up_and_integrate                 7  8.0    0.081    0.103    7.993    7.999
 integrate_v_rspace                  14  9.0    2.903    2.990    7.910    7.924
 -------------------------------------------------------------------------------

 The number of warnings for this run is : 2
 
 -------------------------------------------------------------------------------
  **** **** ******  **  PROGRAM ENDED AT                 2024-03-16 16:04:21.132
 ***** ** ***  *** **   PROGRAM RAN ON                                      tc23
 **    ****   ******    PROGRAM RAN BY                                  fambrosi
 ***** **    ** ** **   PROGRAM PROCESS ID                                 15708
  **** **  *******  **  PROGRAM STOPPED IN          /scratch/fambrosi.55146.tccw
