 DBCSR| Multiplication driver                                               BLAS
 DBCSR| Multrec recursion limit                                              512
 DBCSR| Multiplication stack size                                           1000
 DBCSR| Maximum elements for images                                    UNLIMITED
 DBCSR| Multiplicative factor virtual images                                   1
 DBCSR| Multiplication size stacks                                             3
 DBCSR| Number of 3D layers                                               SINGLE
 DBCSR| Use MPI memory allocation                                              T
 DBCSR| Use RMA algorithm                                                      F
 DBCSR| Use Communication thread                                               T
 DBCSR| Communication thread load                                             87


  **** **** ******  **  PROGRAM STARTED AT               2024-03-16 16:43:29.788
 ***** ** ***  *** **   PROGRAM STARTED ON                                  tc23
 **    ****   ******    PROGRAM STARTED BY                              fambrosi
 ***** **    ** ** **   PROGRAM PROCESS ID                                 16970
  **** **  *******  **  PROGRAM STARTED IN          /scratch/fambrosi.55153.tccw

 CP2K| version string:                                          CP2K version 6.1
 CP2K| source code revision number:                                    svn:18464
 CP2K| cp2kflags: libint fftw3 libxc parallel mpi3 scalapack has_no_shared_glibc
 CP2K|             libderiv_max_am1=5 libint_max_am=6 max_contr=4 mkl
 CP2K| is freely available from                            https://www.cp2k.org/
 CP2K| Program compiled at                         Mon Jun 25 12:26:44 CEST 2018
 CP2K| Program compiled on                                                  tccw
 CP2K| Program compiled for                     Linux-x86-64-intel.MPI-OPENMP.O2
 CP2K| Data directory path                           /home/edoardo/cp2k-6.1/data
 CP2K| Input file name        /home/fambrosi/hydroxyl/test-koopman/anion/koop1/r
 
 GLOBAL| Force Environment number                                              1
 GLOBAL| Basis set file name               /usr/local/cp2k-6.1/data/BASIS_MOLOPT
 GLOBAL| Potential file name             /usr/local/cp2k-6.1/data/GTH_POTENTIALS
 GLOBAL| MM Potential file name                                     MM_POTENTIAL
 GLOBAL| Coordinate file name                                      __STD_INPUT__
 GLOBAL| Method name                                                        CP2K
 GLOBAL| Project name                                               water+I-.dyn
 GLOBAL| Preferred FFT library                                             FFTW3
 GLOBAL| Preferred diagonalization lib.                                       SL
 GLOBAL| Run type                                                         ENERGY
 GLOBAL| All-to-all communication in single precision                          F
 GLOBAL| FFTs using library dependent lengths                                  T
 GLOBAL| Global print level                                                  LOW
 GLOBAL| Total number of message passing processes                            32
 GLOBAL| Number of threads for this process                                    1
 GLOBAL| This output is from process                                           0
 GLOBAL| CPU model name :  Intel(R) Xeon(R) CPU E5-2683 v4 @ 2.10GHz

 MEMORY| system memory details [Kb]
 MEMORY|                        rank 0           min           max       average
 MEMORY| MemTotal            264564380     264564380     264564380     264564380
 MEMORY| MemFree              33566344      33566344      33566344      33566344
 MEMORY| Buffers                197608        197608        197608        197608
 MEMORY| Cached              221522984     221522984     221522984     221522984
 MEMORY| Slab                  6357236       6357236       6357236       6357236
 MEMORY| SReclaimable          6283348       6283348       6283348       6283348
 MEMORY| MemLikelyFree       261570284     261570284     261570284     261570284

 
 GENERATE|  Preliminary Number of Bonds generated:                             0
 GENERATE|  Achieved consistency in connectivity generation.

 *******************************************************************************
 *******************************************************************************
 **                                                                           **
 **     #####                         ##              ##                      **
 **    ##   ##            ##          ##              ##                      **
 **   ##     ##                       ##            ######                    **
 **   ##     ##  ##   ##  ##   #####  ##  ##   ####   ##    #####    #####    **
 **   ##     ##  ##   ##  ##  ##      ## ##   ##      ##   ##   ##  ##   ##   **
 **   ##  ## ##  ##   ##  ##  ##      ####     ###    ##   ######   ######    **
 **    ##  ###   ##   ##  ##  ##      ## ##      ##   ##   ##       ##        **
 **     #######   #####   ##   #####  ##  ##  ####    ##    #####   ##        **
 **           ##                                                    ##        **
 **                                                                           **
 **                                                ... make the atoms dance   **
 **                                                                           **
 **            Copyright (C) by CP2K developers group (2000 - 2018)           **
 **                                                                           **
 *******************************************************************************


 TOTAL NUMBERS AND MAXIMUM NUMBERS

  Total number of            - Atomic kinds:                                   2
                             - Atoms:                                        191
                             - Shell sets:                                  1146
                             - Shells:                                      1338
                             - Primitive Cartesian functions:               1528
                             - Cartesian basis functions:                   4081
                             - Spherical basis functions:                   3634

  Maximum angular momentum of- Orbital basis functions:                        3
                             - Local part of the GTH pseudopotential:          2
                             - Non-local part of the GTH pseudopotential:      0

  AUX_FIT ADMM-Basis: 
  Total number of            - Shell sets:                                   510
                             - Shells:                                       510
                             - Primitive Cartesian functions:                765
                             - Cartesian basis functions:                    766
                             - Spherical basis functions:                    766
                               Maximum angular momentum                        1


 SCF PARAMETERS         Density guess:                                   RESTART
                        --------------------------------------------------------
                        max_scf:                                              50
                        max_scf_history:                                       0
                        max_diis:                                              4
                        --------------------------------------------------------
                        eps_scf:                                        1.00E-05
                        eps_scf_history:                                0.00E+00
                        eps_diis:                                       1.00E-01
                        eps_eigval:                                     1.00E-05
                        --------------------------------------------------------
                        level_shift [a.u.]:                                 0.00
                        --------------------------------------------------------
                        Outer loop SCF in use 
                        No variables optimised in outer loop
                        eps_scf                                         1.00E-05
                        max_scf                                               50
                        No outer loop optimization
                        step_size                                       5.00E-01

 Spin 1

 Number of electrons:                                                        256
 Number of occupied orbitals:                                                256
 Number of molecular orbitals:                                               256

 Spin 2

 Number of electrons:                                                        255
 Number of occupied orbitals:                                                255
 Number of molecular orbitals:                                               255

 Number of orbital functions:                                               3634
 Number of independent orbital functions:                                   3634

 Extrapolation method: initial_guess


 SCF WAVEFUNCTION OPTIMIZATION

  ----------------------------------- OT ---------------------------------------
  Minimizer      : CG                  : conjugate gradient
  Preconditioner : FULL_SINGLE_INVERSE : inversion of 
                                         H + eS - 2*(Sc)(c^T*H*c+const)(Sc)^T
  Precond_solver : DEFAULT
  Line search    : 2PNT                : 2 energies, one gradient
  stepsize       :    0.08000000                  energy_gap     :    0.08000000
  eps_taylor     :   0.10000E-15                  max_taylor     :             4
  ----------------------------------- OT ---------------------------------------

  Step     Update method      Time    Convergence         Total energy    Change
  ------------------------------------------------------------------------------

 *** WARNING in hfx_energy_potential.F:605 :: The Kohn Sham matrix is not  ***
 *** 100% occupied. This may result in incorrect Hartree-Fock results. Try ***
 *** to decrease EPS_PGF_ORB and EPS_FILTER_MATRIX in the QS section. For  ***
 *** more information see FAQ: https://www.cp2k.org/faq:hfx_eps_warning    ***

     1 OT CG       0.80E-01   88.1     0.00080030     -1099.0961805995 -1.10E+03
     2 OT LS       0.32E+00   17.4                    -1099.1814955666
     3 OT CG       0.32E+00   28.7     0.00030487     -1099.3190480082 -2.23E-01
     4 OT LS       0.16E+00   17.4                    -1099.3198613055
     5 OT CG       0.16E+00   29.1     0.00030809     -1099.3330408580 -1.40E-02
     6 OT LS       0.13E+00   17.6                    -1099.3441081271
     7 OT CG       0.13E+00   28.6     0.00020574     -1099.3447123215 -1.17E-02
     8 OT LS       0.26E+00   17.5                    -1099.3524958841
     9 OT CG       0.26E+00   28.3     0.00016752     -1099.3548829593 -1.02E-02
    10 OT LS       0.23E+00   17.6                    -1099.3605247700
    11 OT CG       0.23E+00   28.3     0.00019437     -1099.3607507025 -5.87E-03
    12 OT LS       0.13E+00   17.4                    -1099.3627428714
    13 OT CG       0.13E+00   28.6     0.00015506     -1099.3655196818 -4.77E-03
    14 OT LS       0.27E+00   17.3                    -1099.3699995653
    15 OT CG       0.27E+00   29.1     0.00012401     -1099.3717398682 -6.22E-03
    16 OT LS       0.26E+00   17.5                    -1099.3755918405
    17 OT CG       0.26E+00   28.2     0.00010617     -1099.3756056497 -3.87E-03
    18 OT LS       0.20E+00   17.4                    -1099.3773943147
    19 OT CG       0.20E+00   28.1     0.00009557     -1099.3776285042 -2.02E-03
    20 OT LS       0.21E+00   17.4                    -1099.3793591373
    21 OT CG       0.21E+00   28.3     0.00006501     -1099.3793635423 -1.74E-03
    22 OT LS       0.25E+00   17.2                    -1099.3803240191
    23 OT CG       0.25E+00   28.3     0.00004645     -1099.3803535835 -9.90E-04
    24 OT LS       0.15E+00   17.1                    -1099.3805157590
    25 OT CG       0.15E+00   28.7     0.00003068     -1099.3806506045 -2.97E-04
    26 OT LS       0.19E+00   17.5                    -1099.3808112366
    27 OT CG       0.19E+00   28.0     0.00002094     -1099.3808200700 -1.69E-04
    28 OT LS       0.25E+00   17.7                    -1099.3809174434
    29 OT CG       0.25E+00   27.9     0.00001852     -1099.3809230102 -1.03E-04
    30 OT LS       0.20E+00   17.4                    -1099.3809837066
    31 OT CG       0.20E+00   28.3     0.00001598     -1099.3809876196 -6.46E-05
    32 OT LS       0.28E+00   17.3                    -1099.3810493467
    33 OT CG       0.28E+00   28.4     0.00001683     -1099.3810547135 -6.71E-05
    34 OT LS       0.33E+00   17.2                    -1099.3811396636
    35 OT CG       0.33E+00   28.8     0.00001965     -1099.3811413922 -8.67E-05
    36 OT LS       0.33E+00   17.4                    -1099.3812605382
    37 OT CG       0.33E+00   28.0     0.00002595     -1099.3812605402 -1.19E-04
    38 OT LS       0.31E+00   17.3                    -1099.3814515291
    39 OT CG       0.31E+00   27.7     0.00003090     -1099.3814536870 -1.93E-04
    40 OT LS       0.30E+00   17.2                    -1099.3817106345
    41 OT CG       0.30E+00   28.0     0.00003240     -1099.3817126393 -2.59E-04
    42 OT LS       0.36E+00   17.2                    -1099.3820343877
    43 OT CG       0.36E+00   28.3     0.00003735     -1099.3820413632 -3.29E-04
    44 OT LS       0.23E+00   17.1                    -1099.3822484814
    45 OT CG       0.23E+00   28.4     0.00003423     -1099.3823338613 -2.92E-04
    46 OT LS       0.22E+00   17.3                    -1099.3825764499
    47 OT CG       0.22E+00   27.9     0.00002419     -1099.3825766352 -2.43E-04
    48 OT LS       0.25E+00   17.5                    -1099.3827127549
    49 OT CG       0.25E+00   27.8     0.00001707     -1099.3827146307 -1.38E-04
    50 OT LS       0.24E+00   17.3                    -1099.3827816954

  Leaving inner SCF loop after reaching    50 steps.


  Electronic density on regular grids:       -510.9999999999        0.0000000001
  Core density on regular grids:              510.9999999998       -0.0000000002
  Total charge density on r-space grids:       -0.0000000000
  Total charge density g-space grids:          -0.0000000000

  Overlap energy of the core charge distribution:               0.00000244632561
  Self energy of the core charge distribution:              -2836.80744583234036
  Core Hamiltonian energy:                                    822.75922268526142
  Hartree energy:                                            1182.34393335922641
  Exchange-correlation energy:                               -152.33149192765751
  Hartree-Fock Exchange energy:                              -117.49563558664380
  Dispersion energy:                                            2.14863316045255

  Total energy:                                             -1099.38278169537557

  outer SCF iter =    1 RMS gradient =   0.17E-04 energy =      -1099.3827816954

  ----------------------------------- OT ---------------------------------------
  Minimizer      : CG                  : conjugate gradient
  Preconditioner : FULL_SINGLE_INVERSE : inversion of 
                                         H + eS - 2*(Sc)(c^T*H*c+const)(Sc)^T
  Precond_solver : DEFAULT
  Line search    : 2PNT                : 2 energies, one gradient
  stepsize       :    0.08000000                  energy_gap     :    0.08000000
  eps_taylor     :   0.10000E-15                  max_taylor     :             4
  ----------------------------------- OT ---------------------------------------

  Step     Update method      Time    Convergence         Total energy    Change
  ------------------------------------------------------------------------------
     1 OT CG       0.80E-01   46.5     0.00001760     -1099.3827817113 -6.71E-05
     2 OT LS       0.72E-01   16.7                    -1099.3828022497
     3 OT CG       0.72E-01   26.0     0.00001213     -1099.3828024892 -2.08E-05
     4 OT LS       0.25E+00   16.8                    -1099.3828194172
     5 OT CG       0.25E+00   26.3     0.00000813     -1099.3828372636 -3.48E-05

  *** SCF run converged in     5 steps ***


  Electronic density on regular grids:       -510.9999999999        0.0000000001
  Core density on regular grids:              510.9999999998       -0.0000000002
  Total charge density on r-space grids:       -0.0000000000
  Total charge density g-space grids:          -0.0000000000

  Overlap energy of the core charge distribution:               0.00000244632561
  Self energy of the core charge distribution:              -2836.80744583234036
  Core Hamiltonian energy:                                    822.71866409248514
  Hartree energy:                                            1182.38004503754678
  Exchange-correlation energy:                               -152.32883036997529
  Hartree-Fock Exchange energy:                              -117.49387608564098
  Dispersion energy:                                            2.14860344800310

  Total energy:                                             -1099.38283726359600

  outer SCF iter =    2 RMS gradient =   0.81E-05 energy =      -1099.3828372636
  outer SCF loop converged in   2 iterations or   55 steps


  Integrated absolute spin density  :                               1.1769064617
  Ideal and single determinant S**2 :                    0.750000       0.758021
  
  Eigenvalues of the occupied subspace spin            1
 ---------------------------------------------
      -1.19989192     -1.06747599     -1.06105798     -1.05959686
      -1.05705569     -1.05055666     -1.04818080     -1.04604494
      -1.04202449     -1.03572014     -1.03388958     -1.03274251
      -1.03248428     -1.03204275     -1.03103947     -1.03025999
      -1.03004817     -1.02915987     -1.02771616     -1.02531520
      -1.02390424     -1.02314358     -1.02241190     -1.02072335
      -1.01928364     -1.01797474     -1.01740631     -1.01637771
      -1.01551255     -1.01357094     -1.01311358     -1.01189920
      -1.01061248     -1.01029738     -1.00978919     -1.00823946
      -1.00518787     -1.00329099     -1.00229762     -1.00201152
      -1.00077964     -0.99896065     -0.99841479     -0.99575218
      -0.99508623     -0.99450743     -0.99311547     -0.99247183
      -0.99197644     -0.99128272     -0.99037664     -0.98973200
      -0.98719803     -0.98711447     -0.98575501     -0.98290574
      -0.98182209     -0.98160116     -0.97958839     -0.97643027
      -0.97518778     -0.97293430     -0.96864280     -0.96485653
      -0.59077059     -0.57426889     -0.56522804     -0.52503109
      -0.51663146     -0.51651156     -0.51440249     -0.51347753
      -0.51231294     -0.50927418     -0.50294810     -0.50199005
      -0.49918941     -0.49723553     -0.49688905     -0.49499944
      -0.49335727     -0.48911494     -0.48785728     -0.48618265
      -0.48516499     -0.48393604     -0.48374477     -0.48187716
      -0.48113368     -0.48088990     -0.48020587     -0.47871199
      -0.47738417     -0.47717113     -0.47498026     -0.47331867
      -0.47301492     -0.47190005     -0.47140765     -0.47021199
      -0.46910531     -0.46799453     -0.46699262     -0.46602815
      -0.46518493     -0.46421510     -0.46396931     -0.46112923
      -0.46053021     -0.45988621     -0.45869609     -0.45758710
      -0.45643590     -0.45524532     -0.45376196     -0.45309523
      -0.45228605     -0.45053002     -0.44976399     -0.44923214
      -0.44704150     -0.44511108     -0.44215500     -0.44133944
      -0.43987696     -0.43769204     -0.43741753     -0.43111268
      -0.43048388     -0.42643812     -0.41324313     -0.40578201
      -0.40147125     -0.40081885     -0.39634809     -0.39270194
      -0.39119854     -0.38880024     -0.38509425     -0.38396417
      -0.38131285     -0.37883834     -0.37572320     -0.37393245
      -0.37333960     -0.37086111     -0.37053532     -0.36834642
      -0.36706039     -0.36632021     -0.36494788     -0.36325766
      -0.36206212     -0.36098469     -0.35824104     -0.35701424
      -0.35534998     -0.35455679     -0.35381596     -0.35267889
      -0.35072333     -0.34887865     -0.34877652     -0.34582614
      -0.34520724     -0.34391029     -0.34176700     -0.34016080
      -0.33767203     -0.33659667     -0.33522261     -0.33418124
      -0.33241877     -0.33146111     -0.32981793     -0.32906855
      -0.32668430     -0.32467521     -0.32344340     -0.32210063
      -0.31898289     -0.31847932     -0.31823331     -0.31528820
      -0.31477649     -0.31316105     -0.31218175     -0.31164788
      -0.31123485     -0.31052194     -0.30682047     -0.30551503
      -0.30391513     -0.30212837     -0.30133153     -0.30079360
      -0.29838380     -0.29660389     -0.29655926     -0.29175662
      -0.29060569     -0.29019601     -0.28866306     -0.28511735
      -0.28300566     -0.28195082     -0.28129781     -0.27994568
      -0.27933675     -0.27826530     -0.27803617     -0.27642664
      -0.27582628     -0.27478099     -0.27391343     -0.27262866
      -0.27118148     -0.27048468     -0.26913757     -0.26839768
      -0.26775949     -0.26633556     -0.26484760     -0.26451743
      -0.26402932     -0.26370412     -0.26303538     -0.26223876
      -0.26201106     -0.26119990     -0.26092303     -0.25876696
      -0.25844470     -0.25713199     -0.25629260     -0.25570249
      -0.25536606     -0.25420132     -0.25317612     -0.25254740
      -0.25215839     -0.25139809     -0.24987560     -0.24922211
      -0.24886324     -0.24722636     -0.24539910     -0.24388504
      -0.24354125     -0.24329623     -0.24162395     -0.23944249
      -0.23737733     -0.23327168     -0.23123298     -0.22683208
 Fermi Energy [eV] :   -6.172415
  
  Eigenvalues of the occupied subspace spin            2
 ---------------------------------------------
      -1.11289209     -1.06725963     -1.05907694     -1.05699345
      -1.05109542     -1.04802135     -1.04631991     -1.04405558
      -1.03930129     -1.03490966     -1.03327251     -1.03265401
      -1.03200208     -1.03165010     -1.03096820     -1.03009438
      -1.02993835     -1.02910500     -1.02768361     -1.02512125
      -1.02378284     -1.02305034     -1.02217196     -1.02000733
      -1.01896368     -1.01756168     -1.01738634     -1.01637194
      -1.01550709     -1.01356238     -1.01310044     -1.01189542
      -1.01060716     -1.01026755     -1.00978757     -1.00823739
      -1.00517577     -1.00324853     -1.00226856     -1.00197518
      -1.00047292     -0.99895223     -0.99838675     -0.99574580
      -0.99508053     -0.99450452     -0.99310871     -0.99246720
      -0.99197162     -0.99125995     -0.99036189     -0.98971721
      -0.98719747     -0.98711098     -0.98575207     -0.98289929
      -0.98182268     -0.98160000     -0.97958390     -0.97642882
      -0.97518546     -0.97293736     -0.96864111     -0.96485935
      -0.56673976     -0.55183364     -0.52458694     -0.51703451
      -0.51639945     -0.51555713     -0.51408067     -0.51231760
      -0.51123800     -0.50223778     -0.50199600     -0.49928458
      -0.49795329     -0.49713742     -0.49585642     -0.49484249
      -0.49309540     -0.48882197     -0.48731188     -0.48569191
      -0.48464001     -0.48390023     -0.48240217     -0.48155239
      -0.48093285     -0.48017266     -0.48010164     -0.47796349
      -0.47720052     -0.47653570     -0.47326560     -0.47294875
      -0.47186896     -0.47133544     -0.47022102     -0.46941011
      -0.46796824     -0.46700386     -0.46593439     -0.46518721
      -0.46458679     -0.46401436     -0.46106162     -0.46049982
      -0.45989802     -0.45853582     -0.45766260     -0.45642010
      -0.45521906     -0.45371283     -0.45307053     -0.45180748
      -0.45029218     -0.44948949     -0.44819361     -0.44685981
      -0.44511522     -0.44186625     -0.44106468     -0.43987859
      -0.43767800     -0.43235923     -0.43106679     -0.42913247
      -0.42624336     -0.41306351     -0.40509412     -0.40328120
      -0.39981806     -0.39425824     -0.39259970     -0.39089282
      -0.38867462     -0.38546321     -0.38346446     -0.38048132
      -0.37848161     -0.37570791     -0.37488914     -0.37297096
      -0.37064053     -0.36887141     -0.36755098     -0.36659282
      -0.36574106     -0.36466464     -0.36320545     -0.36151271
      -0.36053055     -0.35810703     -0.35667096     -0.35479061
      -0.35347427     -0.35304565     -0.35164265     -0.35071565
      -0.34880548     -0.34729455     -0.34566358     -0.34413326
      -0.34174414     -0.34090060     -0.33927797     -0.33767668
      -0.33608344     -0.33517360     -0.33396133     -0.33186396
      -0.33069616     -0.32985361     -0.32871185     -0.32661738
      -0.32445335     -0.32302795     -0.32168297     -0.31889772
      -0.31835460     -0.31732999     -0.31515914     -0.31426172
      -0.31266930     -0.31158864     -0.31112941     -0.31042252
      -0.30986953     -0.30666796     -0.30545319     -0.30383051
      -0.30141622     -0.30128615     -0.30005073     -0.29745531
      -0.29649956     -0.29640091     -0.29169847     -0.29054151
      -0.29012624     -0.28864736     -0.28507369     -0.28296984
      -0.28190243     -0.28127539     -0.27992498     -0.27933089
      -0.27821761     -0.27803329     -0.27633779     -0.27580004
      -0.27477230     -0.27390470     -0.27257873     -0.27117444
      -0.27045833     -0.26913116     -0.26839093     -0.26774240
      -0.26633316     -0.26479940     -0.26449542     -0.26399717
      -0.26369477     -0.26300367     -0.26220183     -0.26200089
      -0.26118415     -0.26087017     -0.25873291     -0.25842976
      -0.25710818     -0.25622049     -0.25569617     -0.25534561
      -0.25419002     -0.25317127     -0.25254043     -0.25214666
      -0.25135685     -0.24987033     -0.24921165     -0.24884706
      -0.24722652     -0.24539637     -0.24387995     -0.24353579
      -0.24329373     -0.24161639     -0.23943884     -0.23731937
      -0.23327033     -0.23116044     -0.22682816
 Fermi Energy [eV] :   -6.172308
  
  Lowest Eigenvalues of the unoccupied subspace spin            1
 -----------------------------------------------------
  Reached convergence in           49  iterations 
       0.08938899
  
  Lowest Eigenvalues of the unoccupied subspace spin            2
 -----------------------------------------------------
  Reached convergence in           61  iterations 
      -0.13171412
  
 HOMO - LUMO gap [eV] :    8.604813
 HOMO - LUMO gap [eV] :    2.588185

 ENERGY| Total FORCE_EVAL ( QS ) energy (a.u.):            -1099.382837263596002


 -------------------------------------------------------------------------------
 -                                                                             -
 -                                DBCSR STATISTICS                             -
 -                                                                             -
 -------------------------------------------------------------------------------
 COUNTER                                    TOTAL       BLAS       SMM       ACC
 flops    63 x     1 x    31                 7812     100.0%      0.0%      0.0%
 flops    64 x     1 x    31                23808     100.0%      0.0%      0.0%
 flops    63 x     1 x    32                56448     100.0%      0.0%      0.0%
 flops    65 x     1 x    33               107250     100.0%      0.0%      0.0%
 flops   898 x     1 x    31               111352     100.0%      0.0%      0.0%
 flops    63 x     1 x   442               111384     100.0%      0.0%      0.0%
 flops     1 x     1 x   442               189176     100.0%      0.0%      0.0%
 flops    64 x     1 x    33               316800     100.0%      0.0%      0.0%
 flops   912 x     1 x    31               339264     100.0%      0.0%      0.0%
 flops    65 x     1 x    32               728000     100.0%      0.0%      0.0%
 flops    63 x     1 x   456               804384     100.0%      0.0%      0.0%
 flops     1 x     1 x   456              1366176     100.0%      0.0%      0.0%
 flops    65 x     1 x   442              1436500     100.0%      0.0%      0.0%
 flops   898 x     1 x    33              1481700     100.0%      0.0%      0.0%
 flops    31 x    31 x   442              1699048     100.0%      0.0%      0.0%
 flops    65 x    33 x   442              3792360     100.0%      0.0%      0.0%
 flops   912 x     1 x    33              4514400     100.0%      0.0%      0.0%
 flops    32 x    31 x   442              5261568     100.0%      0.0%      0.0%
 flops    64 x     1 x    32              6647808     100.0%      0.0%      0.0%
 flops    31 x    32 x   442              7015424     100.0%      0.0%      0.0%
 flops    65 x     1 x   456             10374000     100.0%      0.0%      0.0%
 flops    64 x    33 x   442             11202048     100.0%      0.0%      0.0%
 flops    64 x     1 x   442             12050688     100.0%      0.0%      0.0%
 flops    31 x    31 x   456             12270048     100.0%      0.0%      0.0%
 flops    14 x    31 x    31             13669264     100.0%      0.0%      0.0%
 flops    29 x    31 x    31             14268928     100.0%      0.0%      0.0%
 flops    65 x    32 x   442             25742080     100.0%      0.0%      0.0%
 flops   898 x     1 x    32             26034816     100.0%      0.0%      0.0%
 flops    65 x    33 x   456             27387360     100.0%      0.0%      0.0%
 flops    63 x    31 x    31             33904080     100.0%      0.0%      0.0%
 flops    32 x    31 x   456             37997568     100.0%      0.0%      0.0%
 flops   898 x     1 x   442             44454592     100.0%      0.0%      0.0%
 flops    14 x    32 x    31             49385728     100.0%      0.0%      0.0%
 flops    14 x    31 x    32             49385728     100.0%      0.0%      0.0%
 flops    31 x    32 x   456             50663424     100.0%      0.0%      0.0%
 flops    29 x    32 x    31             51552256     100.0%      0.0%      0.0%
 flops    29 x    31 x    32             51552256     100.0%      0.0%      0.0%
 flops   898 x    33 x   442             52392912     100.0%      0.0%      0.0%
 flops   912 x     1 x    32             79322112     100.0%      0.0%      0.0%
 flops    64 x    33 x   456             80898048     100.0%      0.0%      0.0%
 flops    64 x     1 x   456             87026688     100.0%      0.0%      0.0%
 flops    64 x    31 x    31            103326720     100.0%      0.0%      0.0%
 flops     2 x     2 x    31            110865920     100.0%      0.0%      0.0%
 flops    32 x    32 x   442            115867648     100.0%      0.0%      0.0%
 flops   912 x     1 x   442            135442944     100.0%      0.0%      0.0%
 flops   912 x    33 x   442            159629184     100.0%      0.0%      0.0%
 flops    65 x    32 x   456            185902080     100.0%      0.0%      0.0%
 flops     2 x     8 x    31            216439520     100.0%      0.0%      0.0%
 flops     8 x     2 x    31            216766880     100.0%      0.0%      0.0%
 flops    63 x    31 x   442            239976828     100.0%      0.0%      0.0%
 flops    63 x    31 x    32            244984320     100.0%      0.0%      0.0%
 flops    63 x    32 x    31            244984320     100.0%      0.0%      0.0%
 flops   898 x     1 x   456            321038592     100.0%      0.0%      0.0%
 flops   898 x    31 x    31            327931640     100.0%      0.0%      0.0%
 flops     8 x     8 x    31            347874560     100.0%      0.0%      0.0%
 flops   898 x    33 x   456            378366912     100.0%      0.0%      0.0%
 flops    64 x    31 x   442            731357952     100.0%      0.0%      0.0%
 flops   898 x    31 x   442            738263760     100.0%      0.0%      0.0%
 flops    64 x    32 x    31            746618880     100.0%      0.0%      0.0%
 flops    64 x    31 x    32            746618880     100.0%      0.0%      0.0%
 flops    32 x    32 x   456            836763648     100.0%      0.0%      0.0%
 flops    14 x    32 x    32            932184064     100.0%      0.0%      0.0%
 flops    29 x    32 x    32            973078528     100.0%      0.0%      0.0%
 flops   912 x     1 x   456            978130944     100.0%      0.0%      0.0%
 flops   912 x    31 x    31            999132480     100.0%      0.0%      0.0%
 flops   912 x    33 x   456           1152797184     100.0%      0.0%      0.0%
 flops    14 x     1 x    14           1418092144     100.0%      0.0%      0.0%
 flops    29 x     1 x    14           1488649344     100.0%      0.0%      0.0%
 flops    14 x     1 x    29           1488649344     100.0%      0.0%      0.0%
 flops    29 x     1 x    29           1557020672     100.0%      0.0%      0.0%
 flops     2 x     2 x    32           1716633600     100.0%      0.0%      0.0%
 flops    63 x    31 x   456           1733045328     100.0%      0.0%      0.0%
 flops    63 x    32 x   442           1734026112     100.0%      0.0%      0.0%
 flops    63 x    32 x    32           1770209280     100.0%      0.0%      0.0%
 flops   912 x    31 x   442           2249320320     100.0%      0.0%      0.0%
 flops   898 x    32 x    31           2369570560     100.0%      0.0%      0.0%
 flops   898 x    31 x    32           2369570560     100.0%      0.0%      0.0%
 flops     2 x     8 x    32           3351321600     100.0%      0.0%      0.0%
 flops     8 x     2 x    32           3356390400     100.0%      0.0%      0.0%
 flops    64 x    31 x   456           5281661952     100.0%      0.0%      0.0%
 flops   898 x    31 x   456           5331533760     100.0%      0.0%      0.0%
 flops     8 x     8 x    32           5386444800     100.0%      0.0%      0.0%
 flops    14 x    14 x    31           5687233216     100.0%      0.0%      0.0%
 flops    29 x    14 x    31           5922065408     100.0%      0.0%      0.0%
 flops    14 x    29 x    31           5922065408     100.0%      0.0%      0.0%
 flops    29 x    29 x    31           6290410880     100.0%      0.0%      0.0%
 flops   912 x    31 x    32           7219537920     100.0%      0.0%      0.0%
 flops   912 x    32 x    31           7219537920     100.0%      0.0%      0.0%
 flops   898 x    32 x   442          12193259520     100.0%      0.0%      0.0%
 flops    63 x    32 x   456          12522650112     100.0%      0.0%      0.0%
 flops    64 x    32 x   442          13529358336     100.0%      0.0%      0.0%
 flops    64 x    32 x    32          15964569600     100.0%      0.0%      0.0%
 flops   912 x    31 x   456          16243960320     100.0%      0.0%      0.0%
 flops    14 x    31 x    14          18479121080     100.0%      0.0%      0.0%
 flops    29 x    31 x    14          19398550080     100.0%      0.0%      0.0%
 flops    14 x    31 x    29          19398550080     100.0%      0.0%      0.0%
 flops    29 x    31 x    29          20289495040     100.0%      0.0%      0.0%
 flops   912 x    32 x   442          37150064640     100.0%      0.0%      0.0%
 flops   898 x    32 x    32          39485562880     100.0%      0.0%      0.0%
 flops   898 x    32 x   456          88056299520     100.0%      0.0%      0.0%
 flops    14 x    14 x    32          88060385280     100.0%      0.0%      0.0%
 flops    29 x    14 x    32          91696496640     100.0%      0.0%      0.0%
 flops    14 x    29 x    32          91696496640     100.0%      0.0%      0.0%
 flops    29 x    29 x    32          97399910400     100.0%      0.0%      0.0%
 flops    64 x    32 x   456          97705230336     100.0%      0.0%      0.0%
 flops   912 x    32 x    32         120303452160     100.0%      0.0%      0.0%
 flops   912 x    32 x   456         268287344640     100.0%      0.0%      0.0%
 flops    14 x    32 x    14         284521991936     100.0%      0.0%      0.0%
 flops    29 x    32 x    14         298678388736     100.0%      0.0%      0.0%
 flops    14 x    32 x    29         298678388736     100.0%      0.0%      0.0%
 flops    29 x    32 x    29         312396218368     100.0%      0.0%      0.0%
 flops inhomo. stacks                     2414050     100.0%      0.0%      0.0%
 flops total                         2.456043E+12     100.0%      0.0%      0.0%
 flops max/rank                     78.648751E+09     100.0%      0.0%      0.0%
 matmuls inhomo. stacks                      1865     100.0%      0.0%      0.0%
 matmuls total                           96031167     100.0%      0.0%      0.0%
 number of processed stacks                806377     100.0%      0.0%      0.0%
 average stack size                                   119.1       0.0       0.0
 marketing flops                     2.872445E+12
 -------------------------------------------------------------------------------
 # multiplications                           3305
 max memory usage/rank             494.784512E+06
 # max total images/rank                        2
 # max 3D layers                                1
 # MPI messages exchanged                 2220960
 MPI messages size (bytes):
  total size                       484.803838E+09
  min size                           0.000000E+00
  max size                           3.326976E+06
  average size                     218.285719E+03
 MPI breakdown and total messages size (bytes):
             size <=      128              885248                    78960
       128 < size <=     8192              497952               3807251168
      8192 < size <=    32768              196000               3602101048
     32768 < size <=   131072              318080              35264021520
    131072 < size <=  4194304              323680             442130875760
   4194304 < size <= 16777216                   0                        0
  16777216 < size                               0                        0
 -------------------------------------------------------------------------------

 *** WARNING in dbcsr/mm/dbcsr_mm.F:268 :: Using a non-square number of ***
 *** MPI ranks might lead to poor performance.                          ***
 *** Used ranks: 32                                                     ***
 *** Suggested: 36 64                                                   ***

 -------------------------------------------------------------------------------
 
 MEMORY| Estimated peak process memory [MiB]                                 473

 -------------------------------------------------------------------------------
 -                                                                             -
 -                         MESSAGE PASSING PERFORMANCE                         -
 -                                                                             -
 -------------------------------------------------------------------------------

 ROUTINE             CALLS      AVE VOLUME [Bytes]
 MP_Group              459
 MP_Bcast             3882                 421636.
 MP_Allreduce        25157                    371.
 MP_Sync               768
 MP_Alltoall         21986                1995372.
 MP_ISendRecv        27590                  75178.
 MP_Wait            309384
 MP_comm_split         266
 MP_ISend           169716                 132582.
 MP_IRecv           169296                 133391.
 MP_Recv                42                 930304.
 MP_Memory          192100
 -------------------------------------------------------------------------------


 -------------------------------------------------------------------------------
 -                                                                             -
 -                           R E F E R E N C E S                               -
 -                                                                             -
 -------------------------------------------------------------------------------
 
 CP2K version 6.1, the CP2K developers group (2018).
 CP2K is freely available from https://www.cp2k.org/ .

 Schuett, Ole; Messmer, Peter; Hutter, Juerg; VandeVondele, Joost. 
 Electronic Structure Calculations on Graphics Processing Units, John Wiley & Sons, Ltd, 173-190 (2016). 
 GPU-Accelerated Sparse Matrix-Matrix Multiplication for Linear Scaling Density Functional Theory.
 http://dx.doi.org/10.1002/9781118670712.ch8


 Borstnik, U; VandeVondele, J; Weber, V; Hutter, J. 
 PARALLEL COMPUTING, 40 (5-6), 47-58 (2014). 
 Sparse matrix multiplication: The distributed block-compressed sparse
 row library.
 http://dx.doi.org/10.1016/j.parco.2014.03.012


 Hutter, J; Iannuzzi, M; Schiffmann, F; VandeVondele, J. 
 WILEY INTERDISCIPLINARY REVIEWS-COMPUTATIONAL MOLECULAR SCIENCE, 4 (1), 15-25 (2014). 
 CP2K: atomistic simulations of condensed matter systems.
 http://dx.doi.org/10.1002/wcms.1159


 Sabatini, R; Gorni, T; de Gironcoli, S. 
 Phys. Rev. B, 87 (4), 041108(R) (2013). 
 Nonlocal van der Waals density functional made simple and efficient.
 http://dx.doi.org/10.1103/PhysRevB.87.041108


 Guidon, M; Hutter, J; VandeVondele, J. 
 JOURNAL OF CHEMICAL THEORY AND COMPUTATION, 6 (8), 2348-2364 (2010). 
 Auxiliary Density Matrix Methods for Hartree-Fock Exchange Calculations.
 http://dx.doi.org/10.1021/ct1002225


 Guidon, M; Hutter, J; VandeVondele, J. 
 JOURNAL OF CHEMICAL THEORY AND COMPUTATION, 5 (11), 3010-3021 (2009). 
 Robust Periodic Hartree-Fock Exchange for Large-Scale Simulations Using
 Gaussian Basis Sets.
 http://dx.doi.org/10.1021/ct900494g


 Roman-Perez, G; Soler, JM. 
 Phys. Rev. Lett., 103 (9), 096102 (2009). 
 Efficient Implementation of a van der Waals Density Functional:
 Application to Double-Wall Carbon Nanotubes.
 http://dx.doi.org/10.1103/PhysRevLett.103.096102


 Guidon, M; Schiffmann, F; Hutter, J; VandeVondele, J. 
 JOURNAL OF CHEMICAL PHYSICS, 128 (21), 214104 (2008). 
 Ab initio molecular dynamics using hybrid density functionals.
 http://dx.doi.org/10.1063/1.2931945


 VandeVondele, J; Hutter, J. 
 JOURNAL OF CHEMICAL PHYSICS, 127 (11), 114105 (2007). 
 Gaussian basis sets for accurate calculations on molecular systems in
 gas and condensed phases.
 http://dx.doi.org/10.1063/1.2770708


 Krack, M. 
 THEORETICAL CHEMISTRY ACCOUNTS, 114 (1-3), 145-152 (2005). 
 Pseudopotentials for H to Kr optimized for gradient-corrected
 exchange-correlation functionals.
 http://dx.doi.org/10.1007/s00214-005-0655-y


 VandeVondele, J; Krack, M; Mohamed, F; Parrinello, M; Chassaing, T;
 Hutter, J. COMPUTER PHYSICS COMMUNICATIONS, 167 (2), 103-128 (2005). 
 QUICKSTEP: Fast and accurate density functional calculations using a
 mixed Gaussian and plane waves approach.
 http://dx.doi.org/10.1016/j.cpc.2004.12.014


 Frigo, M; Johnson, SG. 
 PROCEEDINGS OF THE IEEE, 93 (2), 216-231 (2005). 
 The design and implementation of FFTW3.
 http://dx.doi.org/10.1109/JPROC.2004.840301


 Heyd, J; Scuseria, GE. 
 JOURNAL OF CHEMICAL PHYSICS, 120 (16), 7274-7280 (2004). 
 Assessment and validation of a screened Coulomb hybrid density
 functional.
 http://dx.doi.org/10.1063/1.1668634


 VandeVondele, J; Hutter, J. 
 JOURNAL OF CHEMICAL PHYSICS, 118 (10), 4365-4369 (2003). 
 An efficient orbital transformation method for electronic structure
 calculations.
 http://dx.doi.org/10.1063/1.1543154


 Hartwigsen, C; Goedecker, S; Hutter, J. 
 PHYSICAL REVIEW B, 58 (7), 3641-3662 (1998). 
 Relativistic separable dual-space Gaussian pseudopotentials from H to Rn.
 http://dx.doi.org/10.1103/PhysRevB.58.3641


 Lippert, G; Hutter, J; Parrinello, M. 
 MOLECULAR PHYSICS, 92 (3), 477-487 (1997). 
 A hybrid Gaussian and plane wave density functional scheme.
 http://dx.doi.org/10.1080/002689797170220


 Perdew, JP; Burke, K; Ernzerhof, M. 
 PHYSICAL REVIEW LETTERS, 77 (18), 3865-3868 (1996). 
 Generalized gradient approximation made simple.
 http://dx.doi.org/10.1103/PhysRevLett.77.3865


 Goedecker, S; Teter, M; Hutter, J. 
 PHYSICAL REVIEW B, 54 (3), 1703-1710 (1996). 
 Separable dual-space Gaussian pseudopotentials.
 http://dx.doi.org/10.1103/PhysRevB.54.1703


 -------------------------------------------------------------------------------
 -                                                                             -
 -                                T I M I N G                                  -
 -                                                                             -
 -------------------------------------------------------------------------------
 SUBROUTINE                       CALLS  ASD         SELF TIME        TOTAL TIME
                                MAXIMUM       AVERAGE  MAXIMUM  AVERAGE  MAXIMUM
 CP2K                                 1  1.0    0.267    0.279 1576.328 1576.329
 qs_energies                          1  2.0    0.000    0.000 1574.872 1574.873
 scf_env_do_scf                       1  3.0    0.000    0.000 1319.214 1319.214
 scf_env_do_scf_inner_loop           55  4.0    0.003    0.004 1212.203 1212.212
 qs_ks_update_qs_env                 57  5.0    0.001    0.001  969.457  969.493
 rebuild_ks_matrix                   55  6.0    0.001    0.001  969.029  969.065
 qs_ks_build_kohn_sham_matrix        55  7.0    0.011    0.012  969.028  969.065
 dbcsr_multiply_generic            3305  8.9    0.241    0.253  533.586  534.378
 hfx_ks_matrix                       55  8.0    0.002    0.003  426.439  426.732
 integrate_four_center               55  9.0    0.848    1.096  426.088  426.431
 integrate_four_center_main          55 10.0    0.018    0.021  403.982  414.375
 integrate_four_center_bin         3520 11.0  403.964  414.357  403.964  414.357
 qs_vxc_create                      110  8.0    0.010    0.018  366.712  367.070
 multiply_cannon                   3305  9.9    0.642    0.686  283.736  285.342
 xc_rho_set_and_dset_create         110 10.0    1.687    1.864  270.425  282.933
 mp_deallocate_d                  54209 13.1  255.164  256.568  255.164  256.568
 scf_post_calculation_gpw             1  3.0    0.000    0.000  252.415  252.417
 make_lumo                            1  4.0    0.000    0.000  251.158  251.161
 ot_eigensolver                       2  5.0    0.003    0.003  250.222  250.226
 qs_scf_new_mos                      55  5.0    0.001    0.001  249.874  249.909
 qs_scf_loop_do_ot                   55  6.0    0.001    0.001  249.873  249.908
 ot_mini                            165  6.7    0.001    0.001  242.106  242.115
 ot_scf_mini                         55  7.0    0.004    0.005  228.935  228.965
 pw_transfer                       5597 10.1    0.420    0.497  218.922  227.987
 fft_wrap_pw1pw2                   5019 11.1    0.061    0.071  216.738  225.248
 qs_ot_get_derivative               112  8.0    0.001    0.002  212.848  212.863
 xc_vxc_pw_create                    56  9.0    1.406    1.697  211.779  211.780
 fft_wrap_pw1pw2_400               1721 12.3   18.445   22.228  192.978  204.371
 dbcsr_destroy                    47655 10.7    0.178    0.185  202.152  202.722
 mp_deallocate_i                  42074 13.1  192.207  193.343  192.207  193.343
 xc_functional_eval                 275 11.0    0.003    0.004  178.001  190.891
 make_m2s                          6610  9.9    0.238    0.251  185.762  186.670
 fft3d_ps                          5019 13.1   77.245   91.628  164.045  176.067
 calculate_rho_elec                 222  7.5   50.158   51.117  155.169  155.216
 dbcsr_data_release              233877 12.6    1.947    2.207  151.547  152.029
 xc_exc_calc                         54  9.0    0.099    0.102  126.546  126.546
 make_images                       6610 10.9    0.340    0.364  117.385  118.267
 init_scf_loop                        2  4.0    0.000    0.000  106.997  106.998
 qs_ot_get_derivative_diag           72  8.7    0.002    0.002  106.898  106.911
 xpbe_hole_t_c_lr_lsd_eval          110 12.0   99.786  106.357   99.786  106.357
 qs_ot_get_p                        228  7.0    0.002    0.002  102.849  103.586
 setup_buffer_matrices             6610 10.9    0.132    0.134   98.801   98.955
 dbcsr_create_new                 49448 11.6    0.277    0.285   93.604   94.076
 density_rs2pw                      222  8.5    0.019    0.021   92.139   93.863
 qs_rho_update_rho                   56  5.0    0.001    0.001   93.373   93.425
 dbcsr_make_index_exist           49448 12.6    0.134    0.138   91.474   92.076
 admm_mo_calc_rho_aux                55  8.0    0.001    0.002   87.999   88.203
 mp_alltoall_z22v                  5019 15.1   60.132   88.146   60.132   88.146
 xwpbe_lsd_eval                     110 12.0   67.455   74.620   67.455   74.620
 dbcsr_make_images_dense           5740 11.2    0.120    0.124   68.040   68.154
 qs_ot_get_orbitals                 224  7.0    0.001    0.002   64.956   65.020
 sum_up_and_integrate                28  8.0    0.547    0.679   63.745   63.775
 integrate_v_rspace                 112  9.0   23.564   24.056   63.182   63.299
 rs_pw_transfer                    1337 10.0    0.019    0.023   60.579   62.369
 x_to_yz                           2470 14.3   19.582   28.811   49.291   57.526
 qs_ot_get_derivative_taylor         40  9.6    0.002    0.002   52.980   52.987
 dbcsr_special_finalize            9915 11.9    0.040    0.041   51.573   52.438
 yz_to_x                           2549 13.9    6.966    8.386   37.389   51.430
 buffer_matrices_ensure_size       6610 10.9    1.114    1.534   47.236   48.101
 mp_waitall_1                    294666 12.3   43.057   46.296   43.057   46.296
 qs_ot_p2m_diag                     152  7.7    0.014    0.015   44.871   44.928
 quick_finalize                    9644 13.0    0.049    0.056   43.196   44.092
 dbcsr_switch_data_area           26178 12.9    0.033    0.033   38.963   39.147
 potential_pw2rs                    112 10.0    0.052    0.055   37.006   37.327
 multiply_cannon_metrocomm3       26440 10.9    0.121    0.126   26.001   33.181
 -------------------------------------------------------------------------------

 The number of warnings for this run is : 2
 
 -------------------------------------------------------------------------------
  **** **** ******  **  PROGRAM ENDED AT                 2024-03-16 17:09:46.639
 ***** ** ***  *** **   PROGRAM RAN ON                                      tc23
 **    ****   ******    PROGRAM RAN BY                                  fambrosi
 ***** **    ** ** **   PROGRAM PROCESS ID                                 16970
  **** **  *******  **  PROGRAM STOPPED IN          /scratch/fambrosi.55153.tccw
