 DBCSR| Multiplication driver                                               BLAS
 DBCSR| Multrec recursion limit                                              512
 DBCSR| Multiplication stack size                                           1000
 DBCSR| Maximum elements for images                                    UNLIMITED
 DBCSR| Multiplicative factor virtual images                                   1
 DBCSR| Multiplication size stacks                                             3
 DBCSR| Number of 3D layers                                               SINGLE
 DBCSR| Use MPI memory allocation                                              T
 DBCSR| Use RMA algorithm                                                      F
 DBCSR| Use Communication thread                                               T
 DBCSR| Communication thread load                                             87


  **** **** ******  **  PROGRAM STARTED AT               2024-03-16 16:37:40.946
 ***** ** ***  *** **   PROGRAM STARTED ON                                  tc23
 **    ****   ******    PROGRAM STARTED BY                              fambrosi
 ***** **    ** ** **   PROGRAM PROCESS ID                                 16709
  **** **  *******  **  PROGRAM STARTED IN          /scratch/fambrosi.55152.tccw

 CP2K| version string:                                          CP2K version 6.1
 CP2K| source code revision number:                                    svn:18464
 CP2K| cp2kflags: libint fftw3 libxc parallel mpi3 scalapack has_no_shared_glibc
 CP2K|             libderiv_max_am1=5 libint_max_am=6 max_contr=4 mkl
 CP2K| is freely available from                            https://www.cp2k.org/
 CP2K| Program compiled at                         Mon Jun 25 12:26:44 CEST 2018
 CP2K| Program compiled on                                                  tccw
 CP2K| Program compiled for                     Linux-x86-64-intel.MPI-OPENMP.O2
 CP2K| Data directory path                           /home/edoardo/cp2k-6.1/data
 CP2K| Input file name        /home/fambrosi/hydroxyl/test-koopman/anion/koop1/e
 
 GLOBAL| Force Environment number                                              1
 GLOBAL| Basis set file name               /usr/local/cp2k-6.1/data/BASIS_MOLOPT
 GLOBAL| Potential file name             /usr/local/cp2k-6.1/data/GTH_POTENTIALS
 GLOBAL| MM Potential file name                                     MM_POTENTIAL
 GLOBAL| Coordinate file name                                      __STD_INPUT__
 GLOBAL| Method name                                                        CP2K
 GLOBAL| Project name                                               water+I-.dyn
 GLOBAL| Preferred FFT library                                             FFTW3
 GLOBAL| Preferred diagonalization lib.                                       SL
 GLOBAL| Run type                                                         ENERGY
 GLOBAL| All-to-all communication in single precision                          F
 GLOBAL| FFTs using library dependent lengths                                  T
 GLOBAL| Global print level                                                  LOW
 GLOBAL| Total number of message passing processes                            32
 GLOBAL| Number of threads for this process                                    1
 GLOBAL| This output is from process                                           0
 GLOBAL| CPU model name :  Intel(R) Xeon(R) CPU E5-2683 v4 @ 2.10GHz

 MEMORY| system memory details [Kb]
 MEMORY|                        rank 0           min           max       average
 MEMORY| MemTotal            264564380     264564380     264564380     264564380
 MEMORY| MemFree              33579236      33579236      33579236      33579236
 MEMORY| Buffers                197588        197588        197588        197588
 MEMORY| Cached              221514828     221514828     221514828     221514828
 MEMORY| Slab                  6356536       6356536       6356536       6356536
 MEMORY| SReclaimable          6283844       6283844       6283844       6283844
 MEMORY| MemLikelyFree       261575496     261575496     261575496     261575496

 
 GENERATE|  Preliminary Number of Bonds generated:                             0
 GENERATE|  Achieved consistency in connectivity generation.

 *******************************************************************************
 *******************************************************************************
 **                                                                           **
 **     #####                         ##              ##                      **
 **    ##   ##            ##          ##              ##                      **
 **   ##     ##                       ##            ######                    **
 **   ##     ##  ##   ##  ##   #####  ##  ##   ####   ##    #####    #####    **
 **   ##     ##  ##   ##  ##  ##      ## ##   ##      ##   ##   ##  ##   ##   **
 **   ##  ## ##  ##   ##  ##  ##      ####     ###    ##   ######   ######    **
 **    ##  ###   ##   ##  ##  ##      ## ##      ##   ##   ##       ##        **
 **     #######   #####   ##   #####  ##  ##  ####    ##    #####   ##        **
 **           ##                                                    ##        **
 **                                                                           **
 **                                                ... make the atoms dance   **
 **                                                                           **
 **            Copyright (C) by CP2K developers group (2000 - 2018)           **
 **                                                                           **
 *******************************************************************************


 TOTAL NUMBERS AND MAXIMUM NUMBERS

  Total number of            - Atomic kinds:                                   2
                             - Atoms:                                        191
                             - Shell sets:                                  1146
                             - Shells:                                      1338
                             - Primitive Cartesian functions:               1528
                             - Cartesian basis functions:                   4081
                             - Spherical basis functions:                   3634

  Maximum angular momentum of- Orbital basis functions:                        3
                             - Local part of the GTH pseudopotential:          2
                             - Non-local part of the GTH pseudopotential:      0

  AUX_FIT ADMM-Basis: 
  Total number of            - Shell sets:                                   510
                             - Shells:                                       510
                             - Primitive Cartesian functions:                765
                             - Cartesian basis functions:                    766
                             - Spherical basis functions:                    766
                               Maximum angular momentum                        1


 SCF PARAMETERS         Density guess:                                   RESTART
                        --------------------------------------------------------
                        max_scf:                                              50
                        max_scf_history:                                       0
                        max_diis:                                              4
                        --------------------------------------------------------
                        eps_scf:                                        1.00E-05
                        eps_scf_history:                                0.00E+00
                        eps_diis:                                       1.00E-01
                        eps_eigval:                                     1.00E-05
                        --------------------------------------------------------
                        level_shift [a.u.]:                                 0.00
                        --------------------------------------------------------
                        Outer loop SCF in use 
                        No variables optimised in outer loop
                        eps_scf                                         1.00E-05
                        max_scf                                               50
                        No outer loop optimization
                        step_size                                       5.00E-01

 Number of electrons:                                                        512
 Number of occupied orbitals:                                                256
 Number of molecular orbitals:                                               256

 Number of orbital functions:                                               3634
 Number of independent orbital functions:                                   3634

 Extrapolation method: initial_guess


 SCF WAVEFUNCTION OPTIMIZATION

  ----------------------------------- OT ---------------------------------------
  Minimizer      : CG                  : conjugate gradient
  Preconditioner : FULL_SINGLE_INVERSE : inversion of 
                                         H + eS - 2*(Sc)(c^T*H*c+const)(Sc)^T
  Precond_solver : DEFAULT
  Line search    : 2PNT                : 2 energies, one gradient
  stepsize       :    0.08000000                  energy_gap     :    0.08000000
  eps_taylor     :   0.10000E-15                  max_taylor     :             4
  ----------------------------------- OT ---------------------------------------

  Step     Update method      Time    Convergence         Total energy    Change
  ------------------------------------------------------------------------------

 *** WARNING in hfx_energy_potential.F:605 :: The Kohn Sham matrix is not  ***
 *** 100% occupied. This may result in incorrect Hartree-Fock results. Try ***
 *** to decrease EPS_PGF_ORB and EPS_FILTER_MATRIX in the QS section. For  ***
 *** more information see FAQ: https://www.cp2k.org/faq:hfx_eps_warning    ***

     1 OT CG       0.80E-01   75.1     0.00162475     -1099.3154476471 -1.10E+03
     2 OT LS       0.18E+00   10.3                    -1099.4691311040
     3 OT CG       0.18E+00   16.0     0.00056864     -1099.5407901074 -2.25E-01
     4 OT LS       0.82E-01   10.3                    -1099.5343312579
     5 OT CG       0.82E-01   16.4     0.00019891     -1099.5531538381 -1.24E-02
     6 OT LS       0.95E-01   10.4                    -1099.5548725615
     7 OT CG       0.95E-01   16.1     0.00008129     -1099.5549044675 -1.75E-03
     8 OT LS       0.91E-01   10.2                    -1099.5551834888
     9 OT CG       0.91E-01   16.2     0.00003567     -1099.5551840572 -2.80E-04
    10 OT LS       0.93E-01   10.4                    -1099.5552390410
    11 OT CG       0.93E-01   16.1     0.00001327     -1099.5552390662 -5.50E-05
    12 OT LS       0.10E+00   10.2                    -1099.5552474655
    13 OT CG       0.10E+00   16.1     0.00000529     -1099.5552475550 -8.49E-06

  *** SCF run converged in    13 steps ***


  Electronic density on regular grids:       -511.9999999999        0.0000000001
  Core density on regular grids:              510.9999999998       -0.0000000002
  Total charge density on r-space grids:       -1.0000000001
  Total charge density g-space grids:          -1.0000000001

  Overlap energy of the core charge distribution:               0.00000244632561
  Self energy of the core charge distribution:              -2836.80744583234036
  Core Hamiltonian energy:                                    823.32585657581365
  Hartree energy:                                            1182.01489554163618
  Exchange-correlation energy:                               -152.56583931358551
  Hartree-Fock Exchange energy:                              -117.67171454698078
  Dispersion energy:                                            2.14899757414880

  Total energy:                                             -1099.55524755498254

  outer SCF iter =    1 RMS gradient =   0.53E-05 energy =      -1099.5552475550
  outer SCF loop converged in   1 iterations or   13 steps

  
  Eigenvalues of the occupied subspace spin            1
 ---------------------------------------------
      -1.04889212     -1.04703550     -1.04364382     -1.04250422
      -1.04229595     -1.04036832     -1.03861278     -1.03784202
      -1.03652093     -1.03478372     -1.03451495     -1.03132308
      -1.03083197     -1.02965086     -1.02883301     -1.02847781
      -1.02620548     -1.02517785     -1.02423358     -1.02372555
      -1.02358664     -1.02302538     -1.02222755     -1.02107681
      -1.01988604     -1.01940682     -1.01792222     -1.01660664
      -1.01536344     -1.01475091     -1.01369074     -1.01308402
      -1.01254143     -1.01021003     -1.00976219     -1.00858733
      -1.00740265     -1.00675289     -1.00550233     -1.00475514
      -1.00427442     -1.00298692     -1.00183007     -1.00023047
      -0.99765945     -0.99637469     -0.99632711     -0.99503461
      -0.99471659     -0.99428521     -0.99351245     -0.99235457
      -0.99061139     -0.99004562     -0.98902929     -0.98808244
      -0.98413747     -0.98282875     -0.97986969     -0.97957499
      -0.97803953     -0.97766167     -0.96796921     -0.92726527
      -0.52144016     -0.51422877     -0.50866603     -0.50831416
      -0.50803638     -0.50501592     -0.50382985     -0.50136549
      -0.49898835     -0.49735384     -0.49683937     -0.49512069
      -0.49437170     -0.49130297     -0.49076149     -0.48973330
      -0.48830350     -0.48784174     -0.48499404     -0.48470076
      -0.48408368     -0.48384577     -0.48313703     -0.48158642
      -0.48006644     -0.47965282     -0.47843761     -0.47797135
      -0.47587396     -0.47537650     -0.47476453     -0.47344803
      -0.47284019     -0.47231681     -0.47158195     -0.47106931
      -0.47077190     -0.46973715     -0.46960180     -0.46791436
      -0.46721808     -0.46664719     -0.46583679     -0.46566018
      -0.46466509     -0.46335455     -0.46282696     -0.46156419
      -0.46041347     -0.45791627     -0.45415467     -0.45352877
      -0.45229602     -0.45154689     -0.45031648     -0.44797075
      -0.44714388     -0.44482775     -0.44418654     -0.43680824
      -0.43557517     -0.43374908     -0.42841340     -0.40404716
      -0.40140722     -0.39954561     -0.39334364     -0.39217759
      -0.39111724     -0.38916763     -0.38660894     -0.38478878
      -0.38438320     -0.38154152     -0.37926072     -0.37779491
      -0.37726911     -0.37470477     -0.37289497     -0.37141083
      -0.37081083     -0.36866276     -0.36803075     -0.36666532
      -0.36583794     -0.36491411     -0.36316783     -0.36082332
      -0.36016790     -0.35847944     -0.35741964     -0.35542673
      -0.35479275     -0.35264297     -0.35102458     -0.34975136
      -0.34966168     -0.34729360     -0.34676702     -0.34619606
      -0.34427379     -0.34244097     -0.34158915     -0.33844130
      -0.33723814     -0.33716991     -0.33575096     -0.33390162
      -0.33301103     -0.33076764     -0.32928566     -0.32717620
      -0.32477072     -0.32443985     -0.32260098     -0.32088881
      -0.32018958     -0.31880073     -0.31697443     -0.31642907
      -0.31167643     -0.30966420     -0.30897410     -0.30796170
      -0.30742102     -0.30362179     -0.29688756     -0.29500116
      -0.29302617     -0.28912468     -0.28856555     -0.28810429
      -0.28718498     -0.28709235     -0.28641857     -0.28586001
      -0.28499042     -0.28423032     -0.28354628     -0.28253296
      -0.28244514     -0.28189337     -0.27985026     -0.27921226
      -0.27893628     -0.27752190     -0.27690753     -0.27635450
      -0.27522804     -0.27388008     -0.27356016     -0.27287351
      -0.27263263     -0.27122751     -0.27026224     -0.27016922
      -0.26914028     -0.26889158     -0.26858453     -0.26832603
      -0.26744629     -0.26718023     -0.26638074     -0.26591077
      -0.26550595     -0.26428993     -0.26305647     -0.26257615
      -0.26123675     -0.26109893     -0.26022332     -0.25996933
      -0.25895786     -0.25827779     -0.25825349     -0.25739993
      -0.25711780     -0.25635500     -0.25562026     -0.25528721
      -0.25360140     -0.25305761     -0.25091989     -0.25038652
      -0.24470177     -0.24408250     -0.24008549     -0.23929215
      -0.23607107     -0.23237556     -0.21507171     -0.21366622
 Fermi Energy [eV] :   -5.814153
  
  Lowest Eigenvalues of the unoccupied subspace spin            1
 -----------------------------------------------------
  Reached convergence in           47  iterations 
       0.11166226
  
 HOMO - LUMO gap [eV] :    8.852638

 ENERGY| Total FORCE_EVAL ( QS ) energy (a.u.):            -1099.555247554982543


 -------------------------------------------------------------------------------
 -                                                                             -
 -                                DBCSR STATISTICS                             -
 -                                                                             -
 -------------------------------------------------------------------------------
 COUNTER                                    TOTAL       BLAS       SMM       ACC
 flops     1 x     1 x   442                80444     100.0%      0.0%      0.0%
 flops    65 x     1 x    33               102960     100.0%      0.0%      0.0%
 flops    64 x     1 x    33               304128     100.0%      0.0%      0.0%
 flops     1 x     1 x   456               580944     100.0%      0.0%      0.0%
 flops    65 x     1 x    32               698880     100.0%      0.0%      0.0%
 flops    65 x     1 x   442              1379040     100.0%      0.0%      0.0%
 flops   898 x     1 x    33              1422432     100.0%      0.0%      0.0%
 flops    64 x     1 x    32              2326528     100.0%      0.0%      0.0%
 flops    65 x    33 x   442              3792360     100.0%      0.0%      0.0%
 flops   912 x     1 x    33              4333824     100.0%      0.0%      0.0%
 flops    64 x     1 x   442              4526080     100.0%      0.0%      0.0%
 flops    65 x     1 x   456              9959040     100.0%      0.0%      0.0%
 flops   898 x     1 x    32             10574848     100.0%      0.0%      0.0%
 flops    64 x    33 x   442             11202048     100.0%      0.0%      0.0%
 flops   898 x     1 x   442             19051968     100.0%      0.0%      0.0%
 flops    65 x    32 x   442             25742080     100.0%      0.0%      0.0%
 flops    65 x    33 x   456             27387360     100.0%      0.0%      0.0%
 flops   912 x     1 x    32             32219136     100.0%      0.0%      0.0%
 flops    32 x    32 x   442             32587776     100.0%      0.0%      0.0%
 flops    64 x     1 x   456             32686080     100.0%      0.0%      0.0%
 flops   898 x    33 x   442             52392912     100.0%      0.0%      0.0%
 flops   912 x     1 x   442             58046976     100.0%      0.0%      0.0%
 flops    64 x    33 x   456             80898048     100.0%      0.0%      0.0%
 flops   898 x     1 x   456            137587968     100.0%      0.0%      0.0%
 flops   912 x    33 x   442            159629184     100.0%      0.0%      0.0%
 flops    65 x    32 x   456            185902080     100.0%      0.0%      0.0%
 flops     2 x     2 x    32            216399872     100.0%      0.0%      0.0%
 flops    32 x    32 x   456            235339776     100.0%      0.0%      0.0%
 flops    14 x    32 x    32            262176768     100.0%      0.0%      0.0%
 flops    29 x    32 x    32            273678336     100.0%      0.0%      0.0%
 flops   898 x    33 x   456            378366912     100.0%      0.0%      0.0%
 flops   912 x     1 x   456            419198976     100.0%      0.0%      0.0%
 flops     2 x     8 x    32            422469632     100.0%      0.0%      0.0%
 flops     8 x     2 x    32            423108608     100.0%      0.0%      0.0%
 flops    14 x     1 x    14            608650168     100.0%      0.0%      0.0%
 flops    29 x     1 x    14            638933568     100.0%      0.0%      0.0%
 flops    14 x     1 x    29            638933568     100.0%      0.0%      0.0%
 flops    29 x     1 x    29            668278784     100.0%      0.0%      0.0%
 flops     8 x     8 x    32            679018496     100.0%      0.0%      0.0%
 flops   912 x    33 x   456           1152797184     100.0%      0.0%      0.0%
 flops   898 x    32 x   442           1981404672     100.0%      0.0%      0.0%
 flops    64 x    32 x   442           2103721984     100.0%      0.0%      0.0%
 flops    64 x    32 x    32           2717908992     100.0%      0.0%      0.0%
 flops   898 x    32 x    32           5296619520     100.0%      0.0%      0.0%
 flops   912 x    32 x   442           6036885504     100.0%      0.0%      0.0%
 flops    14 x    14 x    32          12149215232     100.0%      0.0%      0.0%
 flops    29 x    14 x    32          12648595456     100.0%      0.0%      0.0%
 flops    14 x    29 x    32          12648595456     100.0%      0.0%      0.0%
 flops    29 x    29 x    32          13434470400     100.0%      0.0%      0.0%
 flops   898 x    32 x   456          14309148672     100.0%      0.0%      0.0%
 flops    64 x    32 x   456          15192489984     100.0%      0.0%      0.0%
 flops   912 x    32 x    32          16137584640     100.0%      0.0%      0.0%
 flops    14 x    32 x    14          43371030528     100.0%      0.0%      0.0%
 flops   912 x    32 x   456          43596693504     100.0%      0.0%      0.0%
 flops    29 x    32 x    14          45528956928     100.0%      0.0%      0.0%
 flops    14 x    32 x    29          45528956928     100.0%      0.0%      0.0%
 flops    29 x    32 x    29          47620030464     100.0%      0.0%      0.0%
 flops inhomo. stacks                     1032482     100.0%      0.0%      0.0%
 flops total                       348.216107E+09     100.0%      0.0%      0.0%
 flops max/rank                     11.624289E+09     100.0%      0.0%      0.0%
 matmuls inhomo. stacks                       781     100.0%      0.0%      0.0%
 matmuls total                           15461996     100.0%      0.0%      0.0%
 number of processed stacks                118581     100.0%      0.0%      0.0%
 average stack size                                   130.4       0.0       0.0
 marketing flops                   402.538332E+09
 -------------------------------------------------------------------------------
 # multiplications                            881
 max memory usage/rank             418.398208E+06
 # max total images/rank                        2
 # max 3D layers                                1
 # MPI messages exchanged                  592032
 MPI messages size (bytes):
  total size                       130.450047E+09
  min size                           0.000000E+00
  max size                           3.326976E+06
  average size                     220.342906E+03
 MPI breakdown and total messages size (bytes):
             size <=      128              367304                    31920
       128 < size <=     8192               82264                563149328
      8192 < size <=    32768               29792                536139072
     32768 < size <=   131072               43232               4832304064
    131072 < size <=  4194304               69440             124518960160
   4194304 < size <= 16777216                   0                        0
  16777216 < size                               0                        0
 -------------------------------------------------------------------------------

 *** WARNING in dbcsr/mm/dbcsr_mm.F:268 :: Using a non-square number of ***
 *** MPI ranks might lead to poor performance.                          ***
 *** Used ranks: 32                                                     ***
 *** Suggested: 36 64                                                   ***

 -------------------------------------------------------------------------------
 
 MEMORY| Estimated peak process memory [MiB]                                 400

 -------------------------------------------------------------------------------
 -                                                                             -
 -                         MESSAGE PASSING PERFORMANCE                         -
 -                                                                             -
 -------------------------------------------------------------------------------

 ROUTINE             CALLS      AVE VOLUME [Bytes]
 MP_Group              106
 MP_Bcast             1382                1175644.
 MP_Allreduce         6486                    531.
 MP_Sync               127
 MP_Alltoall          4903                1233368.
 MP_ISendRecv         3410                  74021.
 MP_Wait             76048
 MP_comm_split          55
 MP_ISend            43018                 119256.
 MP_IRecv            42838                 120276.
 MP_Recv                 7                 930304.
 MP_Memory           50826
 -------------------------------------------------------------------------------


 -------------------------------------------------------------------------------
 -                                                                             -
 -                           R E F E R E N C E S                               -
 -                                                                             -
 -------------------------------------------------------------------------------
 
 CP2K version 6.1, the CP2K developers group (2018).
 CP2K is freely available from https://www.cp2k.org/ .

 Schuett, Ole; Messmer, Peter; Hutter, Juerg; VandeVondele, Joost. 
 Electronic Structure Calculations on Graphics Processing Units, John Wiley & Sons, Ltd, 173-190 (2016). 
 GPU-Accelerated Sparse Matrix-Matrix Multiplication for Linear Scaling Density Functional Theory.
 http://dx.doi.org/10.1002/9781118670712.ch8


 Borstnik, U; VandeVondele, J; Weber, V; Hutter, J. 
 PARALLEL COMPUTING, 40 (5-6), 47-58 (2014). 
 Sparse matrix multiplication: The distributed block-compressed sparse
 row library.
 http://dx.doi.org/10.1016/j.parco.2014.03.012


 Hutter, J; Iannuzzi, M; Schiffmann, F; VandeVondele, J. 
 WILEY INTERDISCIPLINARY REVIEWS-COMPUTATIONAL MOLECULAR SCIENCE, 4 (1), 15-25 (2014). 
 CP2K: atomistic simulations of condensed matter systems.
 http://dx.doi.org/10.1002/wcms.1159


 Sabatini, R; Gorni, T; de Gironcoli, S. 
 Phys. Rev. B, 87 (4), 041108(R) (2013). 
 Nonlocal van der Waals density functional made simple and efficient.
 http://dx.doi.org/10.1103/PhysRevB.87.041108


 Guidon, M; Hutter, J; VandeVondele, J. 
 JOURNAL OF CHEMICAL THEORY AND COMPUTATION, 6 (8), 2348-2364 (2010). 
 Auxiliary Density Matrix Methods for Hartree-Fock Exchange Calculations.
 http://dx.doi.org/10.1021/ct1002225


 Guidon, M; Hutter, J; VandeVondele, J. 
 JOURNAL OF CHEMICAL THEORY AND COMPUTATION, 5 (11), 3010-3021 (2009). 
 Robust Periodic Hartree-Fock Exchange for Large-Scale Simulations Using
 Gaussian Basis Sets.
 http://dx.doi.org/10.1021/ct900494g


 Roman-Perez, G; Soler, JM. 
 Phys. Rev. Lett., 103 (9), 096102 (2009). 
 Efficient Implementation of a van der Waals Density Functional:
 Application to Double-Wall Carbon Nanotubes.
 http://dx.doi.org/10.1103/PhysRevLett.103.096102


 Guidon, M; Schiffmann, F; Hutter, J; VandeVondele, J. 
 JOURNAL OF CHEMICAL PHYSICS, 128 (21), 214104 (2008). 
 Ab initio molecular dynamics using hybrid density functionals.
 http://dx.doi.org/10.1063/1.2931945


 VandeVondele, J; Hutter, J. 
 JOURNAL OF CHEMICAL PHYSICS, 127 (11), 114105 (2007). 
 Gaussian basis sets for accurate calculations on molecular systems in
 gas and condensed phases.
 http://dx.doi.org/10.1063/1.2770708


 Krack, M. 
 THEORETICAL CHEMISTRY ACCOUNTS, 114 (1-3), 145-152 (2005). 
 Pseudopotentials for H to Kr optimized for gradient-corrected
 exchange-correlation functionals.
 http://dx.doi.org/10.1007/s00214-005-0655-y


 VandeVondele, J; Krack, M; Mohamed, F; Parrinello, M; Chassaing, T;
 Hutter, J. COMPUTER PHYSICS COMMUNICATIONS, 167 (2), 103-128 (2005). 
 QUICKSTEP: Fast and accurate density functional calculations using a
 mixed Gaussian and plane waves approach.
 http://dx.doi.org/10.1016/j.cpc.2004.12.014


 Frigo, M; Johnson, SG. 
 PROCEEDINGS OF THE IEEE, 93 (2), 216-231 (2005). 
 The design and implementation of FFTW3.
 http://dx.doi.org/10.1109/JPROC.2004.840301


 Heyd, J; Scuseria, GE. 
 JOURNAL OF CHEMICAL PHYSICS, 120 (16), 7274-7280 (2004). 
 Assessment and validation of a screened Coulomb hybrid density
 functional.
 http://dx.doi.org/10.1063/1.1668634


 VandeVondele, J; Hutter, J. 
 JOURNAL OF CHEMICAL PHYSICS, 118 (10), 4365-4369 (2003). 
 An efficient orbital transformation method for electronic structure
 calculations.
 http://dx.doi.org/10.1063/1.1543154


 Hartwigsen, C; Goedecker, S; Hutter, J. 
 PHYSICAL REVIEW B, 58 (7), 3641-3662 (1998). 
 Relativistic separable dual-space Gaussian pseudopotentials from H to Rn.
 http://dx.doi.org/10.1103/PhysRevB.58.3641


 Lippert, G; Hutter, J; Parrinello, M. 
 MOLECULAR PHYSICS, 92 (3), 477-487 (1997). 
 A hybrid Gaussian and plane wave density functional scheme.
 http://dx.doi.org/10.1080/002689797170220


 Perdew, JP; Burke, K; Ernzerhof, M. 
 PHYSICAL REVIEW LETTERS, 77 (18), 3865-3868 (1996). 
 Generalized gradient approximation made simple.
 http://dx.doi.org/10.1103/PhysRevLett.77.3865


 Goedecker, S; Teter, M; Hutter, J. 
 PHYSICAL REVIEW B, 54 (3), 1703-1710 (1996). 
 Separable dual-space Gaussian pseudopotentials.
 http://dx.doi.org/10.1103/PhysRevB.54.1703


 -------------------------------------------------------------------------------
 -                                                                             -
 -                                T I M I N G                                  -
 -                                                                             -
 -------------------------------------------------------------------------------
 SUBROUTINE                       CALLS  ASD         SELF TIME        TOTAL TIME
                                MAXIMUM       AVERAGE  MAXIMUM  AVERAGE  MAXIMUM
 CP2K                                 1  1.0    0.184    0.191  345.613  345.614
 qs_energies                          1  2.0    0.000    0.000  344.267  344.268
 scf_env_do_scf                       1  3.0    0.000    0.000  234.668  234.669
 qs_ks_update_qs_env                 14  5.0    0.000    0.000  189.831  189.836
 rebuild_ks_matrix                   13  6.0    0.000    0.000  189.778  189.783
 qs_ks_build_kohn_sham_matrix        13  7.0    0.002    0.003  189.778  189.783
 scf_env_do_scf_inner_loop           13  4.0    0.001    0.001  162.198  162.208
 dbcsr_multiply_generic             881  8.4    0.056    0.059  143.112  143.442
 hfx_ks_matrix                       13  8.0    0.000    0.001  120.321  120.406
 integrate_four_center               13  9.0    0.132    0.365  120.282  120.371
 integrate_four_center_main          13 10.0    0.005    0.005  110.446  112.147
 integrate_four_center_bin          832 11.0  110.441  112.143  110.441  112.143
 scf_post_calculation_gpw             1  3.0    0.000    0.001  107.693  107.697
 make_lumo                            1  4.0    0.000    0.000  107.159  107.161
 ot_eigensolver                       1  5.0    0.001    0.001  106.678  106.680
 multiply_cannon                    881  9.4    0.167    0.183   76.678   77.304
 init_scf_loop                        1  4.0    0.000    0.000   72.456   72.457
 mp_deallocate_d                  14364 12.6   67.778   68.096   67.778   68.096
 ot_mini                             60  6.4    0.000    0.000   65.591   65.593
 qs_ot_get_derivative                31  7.5    0.000    0.000   57.472   57.478
 dbcsr_destroy                    12529 10.2    0.045    0.047   53.035   53.163
 mp_deallocate_i                  11121 12.5   50.824   51.337   50.824   51.337
 make_m2s                          1762  9.4    0.053    0.054   49.202   49.585
 qs_vxc_create                       26  8.0    0.002    0.004   46.610   46.698
 dbcsr_data_release               60831 12.0    0.427    0.506   39.511   39.692
 xc_rho_set_and_dset_create          26 10.0    0.122    0.145   32.369   34.033
 make_images                       1762 10.4    0.089    0.096   31.479   31.847
 qs_scf_new_mos                      13  5.0    0.000    0.000   31.763   31.768
 qs_scf_loop_do_ot                   13  6.0    0.000    0.000   31.763   31.768
 pw_transfer                        926 10.0    0.063    0.069   28.693   30.091
 fft_wrap_pw1pw2                    841 11.0    0.009    0.010   28.306   29.628
 ot_scf_mini                         13  7.0    0.001    0.001   29.215   29.227
 qs_ot_get_p                         63  6.4    0.001    0.001   28.455   28.778
 qs_ot_get_derivative_diag           19  8.0    0.001    0.001   28.081   28.089
 setup_buffer_matrices             1762 10.4    0.034    0.036   26.406   26.507
 xc_vxc_pw_create                    14  9.0    0.072    0.080   26.229   26.229
 fft_wrap_pw1pw2_400                217 12.2    2.318    2.814   24.015   25.628
 dbcsr_create_new                 12995 11.0    0.070    0.072   25.137   25.383
 dbcsr_make_index_exist           12995 12.0    0.035    0.037   24.510   24.774
 xc_functional_eval                  65 11.0    0.001    0.001   21.519   22.997
 fft3d_ps                           841 13.0   10.052   11.597   21.279   22.806
 calculate_rho_elec                  27  7.4    6.113    6.280   19.234   19.243
 qs_ot_get_orbitals                  62  6.4    0.000    0.000   17.913   17.930
 dbcsr_make_images_dense           1500 10.7    0.026    0.028   17.645   17.701
 qs_ot_get_derivative_taylor         12  9.2    0.000    0.000   14.432   14.439
 xc_exc_calc                         12  9.0    0.022    0.023   14.304   14.304
 mp_waitall_1                     74222 11.8   12.813   14.196   12.813   14.196
 dbcsr_special_finalize            2643 11.4    0.010    0.011   13.306   13.732
 buffer_matrices_ensure_size       1762 10.4    0.383    0.631   12.985   13.333
 xpbe_hole_t_c_lr_lda_eval           26 12.0   11.767   12.481   11.767   12.481
 qs_ot_p2m_diag                      40  7.0    0.001    0.001   12.091   12.111
 quick_finalize                    2589 12.4    0.013    0.016   11.542   11.980
 density_rs2pw                       27  8.4    0.002    0.003   11.545   11.817
 qs_rho_update_rho                   14  5.0    0.000    0.000   11.764   11.770
 mp_alltoall_z22v                   841 15.0    7.853   11.313    7.853   11.313
 multiply_cannon_metrocomm3        7048 10.4    0.033    0.038    9.169   11.113
 admm_mo_calc_rho_aux                13  8.0    0.000    0.000   10.828   10.879
 dbcsr_switch_data_area            6924 12.4    0.009    0.009   10.452   10.577
 apply_preconditioner_dbcsr          34  8.5    0.000    0.000    8.806    8.924
 apply_single                        34  9.5    0.000    0.000    8.806    8.924
 xwpbe_lda_eval                      26 12.0    8.043    8.901    8.043    8.901
 rs_pw_transfer                     165 10.0    0.002    0.002    7.924    8.178
 ot_new_cg_direction                 31  7.5    0.000    0.000    8.082    8.082
 sum_up_and_integrate                 7  8.0    0.081    0.105    8.043    8.054
 integrate_v_rspace                  14  9.0    2.903    2.980    7.961    7.977
 x_to_yz                            388 14.2    2.478    3.653    6.246    7.318
 integrate_four_center_load          13 10.0    0.000    0.000    6.957    6.958
 hfx_load_balance                     1 11.0    0.002    0.002    6.957    6.958
 -------------------------------------------------------------------------------

 The number of warnings for this run is : 2
 
 -------------------------------------------------------------------------------
  **** **** ******  **  PROGRAM ENDED AT                 2024-03-16 16:43:27.216
 ***** ** ***  *** **   PROGRAM RAN ON                                      tc23
 **    ****   ******    PROGRAM RAN BY                                  fambrosi
 ***** **    ** ** **   PROGRAM PROCESS ID                                 16709
  **** **  *******  **  PROGRAM STOPPED IN          /scratch/fambrosi.55152.tccw
