 DBCSR| Multiplication driver                                               BLAS
 DBCSR| Multrec recursion limit                                              512
 DBCSR| Multiplication stack size                                           1000
 DBCSR| Maximum elements for images                                    UNLIMITED
 DBCSR| Multiplicative factor virtual images                                   1
 DBCSR| Multiplication size stacks                                             3
 DBCSR| Number of 3D layers                                               SINGLE
 DBCSR| Use MPI memory allocation                                              T
 DBCSR| Use RMA algorithm                                                      F
 DBCSR| Use Communication thread                                               T
 DBCSR| Communication thread load                                             87


  **** **** ******  **  PROGRAM STARTED AT               2024-03-14 22:52:50.549
 ***** ** ***  *** **   PROGRAM STARTED ON                                  tc16
 **    ****   ******    PROGRAM STARTED BY                              fambrosi
 ***** **    ** ** **   PROGRAM PROCESS ID                                  5353
  **** **  *******  **  PROGRAM STARTED IN          /scratch/fambrosi.55024.tccw

 CP2K| version string:                                          CP2K version 6.1
 CP2K| source code revision number:                                    svn:18464
 CP2K| cp2kflags: libint fftw3 libxc parallel mpi3 scalapack has_no_shared_glibc
 CP2K|             libderiv_max_am1=5 libint_max_am=6 max_contr=4 mkl
 CP2K| is freely available from                            https://www.cp2k.org/
 CP2K| Program compiled at                         Mon Jun 25 12:26:44 CEST 2018
 CP2K| Program compiled on                                                  tccw
 CP2K| Program compiled for                     Linux-x86-64-intel.MPI-OPENMP.O2
 CP2K| Data directory path                           /home/edoardo/cp2k-6.1/data
 CP2K| Input file name        /home/fambrosi/hydroxyl/test-koopman/radical/gga3/
 
 GLOBAL| Force Environment number                                              1
 GLOBAL| Basis set file name               /usr/local/cp2k-6.1/data/BASIS_MOLOPT
 GLOBAL| Potential file name             /usr/local/cp2k-6.1/data/GTH_POTENTIALS
 GLOBAL| MM Potential file name                                     MM_POTENTIAL
 GLOBAL| Coordinate file name                                      __STD_INPUT__
 GLOBAL| Method name                                                        CP2K
 GLOBAL| Project name                                               water+I-.dyn
 GLOBAL| Preferred FFT library                                             FFTW3
 GLOBAL| Preferred diagonalization lib.                                       SL
 GLOBAL| Run type                                                         ENERGY
 GLOBAL| All-to-all communication in single precision                          F
 GLOBAL| FFTs using library dependent lengths                                  T
 GLOBAL| Global print level                                                  LOW
 GLOBAL| Total number of message passing processes                            64
 GLOBAL| Number of threads for this process                                    1
 GLOBAL| This output is from process                                           0
 GLOBAL| CPU model name :  Intel(R) Xeon(R) CPU E5-2683 v4 @ 2.10GHz

 MEMORY| system memory details [Kb]
 MEMORY|                        rank 0           min           max       average
 MEMORY| MemTotal            264564496     264564376     264564496     264564436
 MEMORY| MemFree              87758064      87758064     177631680     132694872
 MEMORY| Buffers                231484        231484        260532        246008
 MEMORY| Cached              169207712      80708696     169207712     124958204
 MEMORY| Slab                  3769528       2374608       3769528       3072068
 MEMORY| SReclaimable          3695736       2299856       3695736       2997796
 MEMORY| MemLikelyFree       260892996     260892996     260900764     260896880

 
 GENERATE|  Preliminary Number of Bonds generated:                             0
 GENERATE|  Achieved consistency in connectivity generation.

 *******************************************************************************
 *******************************************************************************
 **                                                                           **
 **     #####                         ##              ##                      **
 **    ##   ##            ##          ##              ##                      **
 **   ##     ##                       ##            ######                    **
 **   ##     ##  ##   ##  ##   #####  ##  ##   ####   ##    #####    #####    **
 **   ##     ##  ##   ##  ##  ##      ## ##   ##      ##   ##   ##  ##   ##   **
 **   ##  ## ##  ##   ##  ##  ##      ####     ###    ##   ######   ######    **
 **    ##  ###   ##   ##  ##  ##      ## ##      ##   ##   ##       ##        **
 **     #######   #####   ##   #####  ##  ##  ####    ##    #####   ##        **
 **           ##                                                    ##        **
 **                                                                           **
 **                                                ... make the atoms dance   **
 **                                                                           **
 **            Copyright (C) by CP2K developers group (2000 - 2018)           **
 **                                                                           **
 *******************************************************************************


 TOTAL NUMBERS AND MAXIMUM NUMBERS

  Total number of            - Atomic kinds:                                   2
                             - Atoms:                                        191
                             - Shell sets:                                  1146
                             - Shells:                                      1338
                             - Primitive Cartesian functions:               1528
                             - Cartesian basis functions:                   4081
                             - Spherical basis functions:                   3634

  Maximum angular momentum of- Orbital basis functions:                        3
                             - Local part of the GTH pseudopotential:          2
                             - Non-local part of the GTH pseudopotential:      0


 SCF PARAMETERS         Density guess:                                   RESTART
                        --------------------------------------------------------
                        max_scf:                                              50
                        max_scf_history:                                       0
                        max_diis:                                              4
                        --------------------------------------------------------
                        eps_scf:                                        1.00E-05
                        eps_scf_history:                                0.00E+00
                        eps_diis:                                       1.00E-01
                        eps_eigval:                                     1.00E-05
                        --------------------------------------------------------
                        level_shift [a.u.]:                                 0.00
                        --------------------------------------------------------
                        Outer loop SCF in use 
                        No variables optimised in outer loop
                        eps_scf                                         1.00E-05
                        max_scf                                               50
                        No outer loop optimization
                        step_size                                       5.00E-01

 Spin 1

 Number of electrons:                                                        256
 Number of occupied orbitals:                                                256
 Number of molecular orbitals:                                               256

 Spin 2

 Number of electrons:                                                        255
 Number of occupied orbitals:                                                255
 Number of molecular orbitals:                                               255

 Number of orbital functions:                                               3634
 Number of independent orbital functions:                                   3634

 Extrapolation method: initial_guess

 *** WARNING in qs_initial_guess.F:263 :: User requested to restart the    ***
 *** wavefunction from the file named: water+I-.dyn-RESTART.wfn. This file ***
 *** does not exist. Please check the existence of the file or change      ***
 *** properly the value of the keyword WFN_RESTART_FILE_NAME. Calculation  ***
 *** continues using ATOMIC GUESS.                                         ***



 SCF WAVEFUNCTION OPTIMIZATION

  ----------------------------------- OT ---------------------------------------
  Minimizer      : DIIS                : direct inversion
                                         in the iterative subspace
                                         using   7 DIIS vectors
                                         safer DIIS on
  Preconditioner : FULL_SINGLE_INVERSE : inversion of 
                                         H + eS - 2*(Sc)(c^T*H*c+const)(Sc)^T
  Precond_solver : DEFAULT
  stepsize       :    0.08000000                  energy_gap     :    0.08000000
  eps_taylor     :   0.10000E-15                  max_taylor     :             4
  ----------------------------------- OT ---------------------------------------

  Step     Update method      Time    Convergence         Total energy    Change
  ------------------------------------------------------------------------------
     1 OT DIIS     0.80E-01    8.3     0.00961034     -1060.3535019052 -1.06E+03
     2 OT DIIS     0.80E-01    7.9     0.00785716     -1072.4404092575 -1.21E+01
     3 OT DIIS     0.80E-01    7.7     0.00648008     -1084.7045268105 -1.23E+01
     4 OT DIIS     0.80E-01    8.0     0.00480726     -1094.7813957044 -1.01E+01
     5 OT DIIS     0.80E-01    7.9     0.00303288     -1100.9709797290 -6.19E+00
     6 OT DIIS     0.80E-01    7.8     0.00193336     -1103.4986539609 -2.53E+00
     7 OT DIIS     0.80E-01    7.7     0.00146307     -1104.2273849418 -7.29E-01
     8 OT DIIS     0.80E-01    7.6     0.00099093     -1104.8726731167 -6.45E-01
     9 OT DIIS     0.80E-01    7.6     0.00084848     -1105.0679386062 -1.95E-01
    10 OT DIIS     0.80E-01    7.9     0.00065628     -1105.2768621531 -2.09E-01
    11 OT DIIS     0.80E-01    7.9     0.00046914     -1105.4063744859 -1.30E-01
    12 OT DIIS     0.80E-01    7.8     0.00036606     -1105.4904522438 -8.41E-02
    13 OT DIIS     0.80E-01    7.7     0.00026942     -1105.5528309112 -6.24E-02
    14 OT DIIS     0.80E-01    8.1     0.00021901     -1105.5860022464 -3.32E-02
    15 OT DIIS     0.80E-01    8.0     0.00017623     -1105.6143929875 -2.84E-02
    16 OT DIIS     0.80E-01    8.1     0.00014950     -1105.6221816564 -7.79E-03
    17 OT DIIS     0.80E-01    8.0     0.00010293     -1105.6393744713 -1.72E-02
    18 OT DIIS     0.80E-01    7.9     0.00008274     -1105.6453731967 -6.00E-03
    19 OT DIIS     0.80E-01    7.6     0.00006321     -1105.6501222918 -4.75E-03
    20 OT DIIS     0.80E-01    7.7     0.00004973     -1105.6532591731 -3.14E-03
    21 OT DIIS     0.80E-01    7.8     0.00004135     -1105.6550164044 -1.76E-03
    22 OT DIIS     0.80E-01    7.5     0.00003350     -1105.6565836056 -1.57E-03
    23 OT DIIS     0.80E-01    7.8     0.00002907     -1105.6575015486 -9.18E-04
    24 OT DIIS     0.80E-01    7.6     0.00002580     -1105.6581088675 -6.07E-04
    25 OT DIIS     0.80E-01    7.6     0.00002231     -1105.6588226018 -7.14E-04
    26 OT DIIS     0.80E-01    7.4     0.00001981     -1105.6592983789 -4.76E-04
    27 OT DIIS     0.80E-01    7.8     0.00001782     -1105.6597078494 -4.09E-04
    28 OT DIIS     0.80E-01    7.7     0.00001598     -1105.6600855564 -3.78E-04
    29 OT DIIS     0.80E-01    7.9     0.00001464     -1105.6603730810 -2.88E-04
    30 OT DIIS     0.80E-01    8.0     0.00001344     -1105.6606310145 -2.58E-04
    31 OT DIIS     0.80E-01    8.2     0.00001208     -1105.6608939456 -2.63E-04
    32 OT DIIS     0.80E-01    7.9     0.00001102     -1105.6610894143 -1.95E-04
    33 OT DIIS     0.80E-01    7.6     0.00001004     -1105.6612793172 -1.90E-04
    34 OT DIIS     0.80E-01    7.7     0.00000929     -1105.6614210627 -1.42E-04

  *** SCF run converged in    34 steps ***


  Electronic density on regular grids:       -510.9999999999        0.0000000001
  Core density on regular grids:              510.9999999998       -0.0000000002
  Total charge density on r-space grids:       -0.0000000001
  Total charge density g-space grids:          -0.0000000001

  Overlap energy of the core charge distribution:               0.00000311766455
  Self energy of the core charge distribution:              -2836.80744583234036
  Core Hamiltonian energy:                                    833.10230832359571
  Hartree energy:                                            1173.20535513379764
  Exchange-correlation energy:                               -276.13146279191994
  Dispersion energy:                                            0.96982098649645

  Total energy:                                             -1105.66142106270581

  outer SCF iter =    1 RMS gradient =   0.93E-05 energy =      -1105.6614210627
  outer SCF loop converged in   1 iterations or   34 steps


  Integrated absolute spin density  :                               1.0876556768
  Ideal and single determinant S**2 :                    0.750000       0.753590

 ENERGY| Total FORCE_EVAL ( QS ) energy (a.u.):            -1105.661421062705813


 -------------------------------------------------------------------------------
 -                                                                             -
 -                                DBCSR STATISTICS                             -
 -                                                                             -
 -------------------------------------------------------------------------------
 COUNTER                                    TOTAL       BLAS       SMM       ACC
 flops    14 x    31 x    31              6834632     100.0%      0.0%      0.0%
 flops    29 x    31 x    31              7134464     100.0%      0.0%      0.0%
 flops    31 x    31 x    31             17874600     100.0%      0.0%      0.0%
 flops    14 x    32 x    31             24692864     100.0%      0.0%      0.0%
 flops    14 x    31 x    32             24692864     100.0%      0.0%      0.0%
 flops    29 x    32 x    31             25776128     100.0%      0.0%      0.0%
 flops    29 x    31 x    32             25776128     100.0%      0.0%      0.0%
 flops    31 x    31 x   442            115535264     100.0%      0.0%      0.0%
 flops    31 x    31 x    32            129158400     100.0%      0.0%      0.0%
 flops    31 x    32 x    31            129158400     100.0%      0.0%      0.0%
 flops    32 x    31 x    31            129158400     100.0%      0.0%      0.0%
 flops   442 x    31 x    31            142720032     100.0%      0.0%      0.0%
 flops   442 x    31 x   442            423939880     100.0%      0.0%      0.0%
 flops    14 x    32 x    32            466092032     100.0%      0.0%      0.0%
 flops    29 x    32 x    32            486539264     100.0%      0.0%      0.0%
 flops    32 x    31 x   442            831327744     100.0%      0.0%      0.0%
 flops    31 x    32 x   442            832204672     100.0%      0.0%      0.0%
 flops    31 x    31 x   456            834363264     100.0%      0.0%      0.0%
 flops    32 x    32 x    31            933273600     100.0%      0.0%      0.0%
 flops    31 x    32 x    32            933273600     100.0%      0.0%      0.0%
 flops    32 x    31 x    32            933273600     100.0%      0.0%      0.0%
 flops   456 x    31 x    31           1030684032     100.0%      0.0%      0.0%
 flops   442 x    32 x    31           1031267328     100.0%      0.0%      0.0%
 flops   442 x    31 x    32           1031267328     100.0%      0.0%      0.0%
 flops   456 x    31 x   442           3061574880     100.0%      0.0%      0.0%
 flops   442 x    31 x   456           3061574880     100.0%      0.0%      0.0%
 flops    14 x    14 x    31           3530678536     100.0%      0.0%      0.0%
 flops    29 x    14 x    31           3675716128     100.0%      0.0%      0.0%
 flops    14 x    29 x    31           3677478168     100.0%      0.0%      0.0%
 flops    29 x    29 x    31           3900743020     100.0%      0.0%      0.0%
 flops    32 x    31 x   456           6003615744     100.0%      0.0%      0.0%
 flops    31 x    32 x   456           6009948672     100.0%      0.0%      0.0%
 flops   442 x    32 x   442           6564230400     100.0%      0.0%      0.0%
 flops   456 x    31 x    32           7447523328     100.0%      0.0%      0.0%
 flops   456 x    32 x    31           7447523328     100.0%      0.0%      0.0%
 flops    32 x    32 x   442          13867003904     100.0%      0.0%      0.0%
 flops    14 x    31 x    14          14592425400     100.0%      0.0%      0.0%
 flops    29 x    31 x    14          15318420600     100.0%      0.0%      0.0%
 flops    14 x    31 x    29          15318420600     100.0%      0.0%      0.0%
 flops    29 x    31 x    29          16002379800     100.0%      0.0%      0.0%
 flops    32 x    32 x    32          16809984000     100.0%      0.0%      0.0%
 flops   442 x    32 x    32          17184620544     100.0%      0.0%      0.0%
 flops   456 x    31 x   456          22109834880     100.0%      0.0%      0.0%
 flops   442 x    32 x   456          47405030400     100.0%      0.0%      0.0%
 flops   456 x    32 x   442          47405030400     100.0%      0.0%      0.0%
 flops    14 x    14 x    32          54668570880     100.0%      0.0%      0.0%
 flops    29 x    14 x    32          56914314240     100.0%      0.0%      0.0%
 flops    14 x    29 x    32          56941597440     100.0%      0.0%      0.0%
 flops    29 x    29 x    32          60398601600     100.0%      0.0%      0.0%
 flops    32 x    32 x   456         100143611904     100.0%      0.0%      0.0%
 flops   456 x    32 x    32         124102508544     100.0%      0.0%      0.0%
 flops    14 x    32 x    14         224340496128     100.0%      0.0%      0.0%
 flops    29 x    32 x    14         235501774592     100.0%      0.0%      0.0%
 flops    14 x    32 x    29         235501774592     100.0%      0.0%      0.0%
 flops    29 x    32 x    29         246016801536     100.0%      0.0%      0.0%
 flops   456 x    32 x   456         342345830400     100.0%      0.0%      0.0%
 flops inhomo. stacks                           0       0.0%      0.0%      0.0%
 flops total                         2.027816E+12     100.0%      0.0%      0.0%
 flops max/rank                     32.051434E+09     100.0%      0.0%      0.0%
 matmuls inhomo. stacks                         0       0.0%      0.0%      0.0%
 matmuls total                           54507480     100.0%      0.0%      0.0%
 number of processed stacks               1108800     100.0%      0.0%      0.0%
 average stack size                                    49.2       0.0       0.0
 marketing flops                     2.275067E+12
 -------------------------------------------------------------------------------
 # multiplications                           1505
 max memory usage/rank             276.680704E+06
 # max total images/rank                        1
 # max 3D layers                                1
 # MPI messages exchanged                 1348480
 MPI messages size (bytes):
  total size                       232.103756E+09
  min size                           0.000000E+00
  max size                           1.663488E+06
  average size                     172.122500E+03
 MPI breakdown and total messages size (bytes):
             size <=      128                2576                        0
       128 < size <=     8192              689136               5623392880
      8192 < size <=    32768                   0                        0
     32768 < size <=   131072              558656              64838002432
    131072 < size <=  4194304               98112             161641940544
   4194304 < size <= 16777216                   0                        0
  16777216 < size                               0                        0
 -------------------------------------------------------------------------------
 
 MEMORY| Estimated peak process memory [MiB]                                 265

 -------------------------------------------------------------------------------
 -                                                                             -
 -                         MESSAGE PASSING PERFORMANCE                         -
 -                                                                             -
 -------------------------------------------------------------------------------

 ROUTINE             CALLS      AVE VOLUME [Bytes]
 MP_Group               95
 MP_Bcast             5680                 171354.
 MP_Allreduce        22512                    364.
 MP_Sync                72
 MP_Alltoall          8506                1470385.
 MP_ISendRecv        17388                  47520.
 MP_Wait            144990
 MP_comm_split          68
 MP_ISend            54246                  99364.
 MP_IRecv            54246                  99583.
 MP_Recv                28                 930304.
 MP_Memory           60444
 -------------------------------------------------------------------------------


 -------------------------------------------------------------------------------
 -                                                                             -
 -                           R E F E R E N C E S                               -
 -                                                                             -
 -------------------------------------------------------------------------------
 
 CP2K version 6.1, the CP2K developers group (2018).
 CP2K is freely available from https://www.cp2k.org/ .

 Lehtola, S; Steigemann, C; Oliveira, MJT; Marques, MAL. 
 SoftwareX, 7, 1-5 (2018). 
 Recent developments in libxc - A comprehensive library of functionals
 for density functional theory.
 http://dx.doi.org/10.1016/j.softx.2017.11.002


 Schuett, Ole; Messmer, Peter; Hutter, Juerg; VandeVondele, Joost. 
 Electronic Structure Calculations on Graphics Processing Units, John Wiley & Sons, Ltd, 173-190 (2016). 
 GPU-Accelerated Sparse Matrix-Matrix Multiplication for Linear Scaling Density Functional Theory.
 http://dx.doi.org/10.1002/9781118670712.ch8


 Borstnik, U; VandeVondele, J; Weber, V; Hutter, J. 
 PARALLEL COMPUTING, 40 (5-6), 47-58 (2014). 
 Sparse matrix multiplication: The distributed block-compressed sparse
 row library.
 http://dx.doi.org/10.1016/j.parco.2014.03.012


 Hutter, J; Iannuzzi, M; Schiffmann, F; VandeVondele, J. 
 WILEY INTERDISCIPLINARY REVIEWS-COMPUTATIONAL MOLECULAR SCIENCE, 4 (1), 15-25 (2014). 
 CP2K: atomistic simulations of condensed matter systems.
 http://dx.doi.org/10.1002/wcms.1159


 Sabatini, R; Gorni, T; de Gironcoli, S. 
 Phys. Rev. B, 87 (4), 041108(R) (2013). 
 Nonlocal van der Waals density functional made simple and efficient.
 http://dx.doi.org/10.1103/PhysRevB.87.041108


 Marques, MAL; Oliveira, MJT; Burnus, T. 
 COMPUTER PHYSICS COMMUNICATIONS, 183 (10), 2272-2281 (2012). 
 LIBXC: A library of exchange and correlation functionals for density
 functional theory.
 http://dx.doi.org/10.1016/j.cpc.2012.05.007


 Roman-Perez, G; Soler, JM. 
 Phys. Rev. Lett., 103 (9), 096102 (2009). 
 Efficient Implementation of a van der Waals Density Functional:
 Application to Double-Wall Carbon Nanotubes.
 http://dx.doi.org/10.1103/PhysRevLett.103.096102


 VandeVondele, J; Hutter, J. 
 JOURNAL OF CHEMICAL PHYSICS, 127 (11), 114105 (2007). 
 Gaussian basis sets for accurate calculations on molecular systems in
 gas and condensed phases.
 http://dx.doi.org/10.1063/1.2770708


 Krack, M. 
 THEORETICAL CHEMISTRY ACCOUNTS, 114 (1-3), 145-152 (2005). 
 Pseudopotentials for H to Kr optimized for gradient-corrected
 exchange-correlation functionals.
 http://dx.doi.org/10.1007/s00214-005-0655-y


 VandeVondele, J; Krack, M; Mohamed, F; Parrinello, M; Chassaing, T;
 Hutter, J. COMPUTER PHYSICS COMMUNICATIONS, 167 (2), 103-128 (2005). 
 QUICKSTEP: Fast and accurate density functional calculations using a
 mixed Gaussian and plane waves approach.
 http://dx.doi.org/10.1016/j.cpc.2004.12.014


 Frigo, M; Johnson, SG. 
 PROCEEDINGS OF THE IEEE, 93 (2), 216-231 (2005). 
 The design and implementation of FFTW3.
 http://dx.doi.org/10.1109/JPROC.2004.840301


 VandeVondele, J; Hutter, J. 
 JOURNAL OF CHEMICAL PHYSICS, 118 (10), 4365-4369 (2003). 
 An efficient orbital transformation method for electronic structure
 calculations.
 http://dx.doi.org/10.1063/1.1543154


 Hartwigsen, C; Goedecker, S; Hutter, J. 
 PHYSICAL REVIEW B, 58 (7), 3641-3662 (1998). 
 Relativistic separable dual-space Gaussian pseudopotentials from H to Rn.
 http://dx.doi.org/10.1103/PhysRevB.58.3641


 Lippert, G; Hutter, J; Parrinello, M. 
 MOLECULAR PHYSICS, 92 (3), 477-487 (1997). 
 A hybrid Gaussian and plane wave density functional scheme.
 http://dx.doi.org/10.1080/002689797170220


 Goedecker, S; Teter, M; Hutter, J. 
 PHYSICAL REVIEW B, 54 (3), 1703-1710 (1996). 
 Separable dual-space Gaussian pseudopotentials.
 http://dx.doi.org/10.1103/PhysRevB.54.1703


 -------------------------------------------------------------------------------
 -                                                                             -
 -                                T I M I N G                                  -
 -                                                                             -
 -------------------------------------------------------------------------------
 SUBROUTINE                       CALLS  ASD         SELF TIME        TOTAL TIME
                                MAXIMUM       AVERAGE  MAXIMUM  AVERAGE  MAXIMUM
 CP2K                                 1  1.0    0.046    0.053  269.253  269.253
 qs_energies                          1  2.0    0.000    0.000  268.533  268.533
 scf_env_do_scf                       1  3.0    0.000    0.000  266.425  266.425
 scf_env_do_scf_inner_loop           34  4.0    0.002    0.003  261.606  261.617
 dbcsr_multiply_generic            1505 10.1    0.090    0.092  179.039  179.607
 qs_scf_new_mos                      34  5.0    0.000    0.000  171.611  171.665
 qs_scf_loop_do_ot                   34  6.0    0.000    0.000  171.610  171.665
 ot_scf_mini                         34  7.0    0.002    0.002  162.629  162.691
 ot_mini                             34  8.0    0.000    0.000  112.142  112.166
 qs_ot_get_derivative                68  9.0    0.001    0.001  101.238  101.392
 multiply_cannon                   1505 11.1    0.227    0.232   89.570   90.603
 mp_deallocate_d                  17400 14.3   84.303   87.806   84.303   87.806
 qs_ot_get_derivative_diag           66 10.0    0.002    0.002   76.879   77.047
 dbcsr_destroy                    17352 11.7    0.057    0.059   68.650   71.659
 qs_ks_update_qs_env                 35  5.0    0.000    0.000   67.688   67.712
 rebuild_ks_matrix                   34  6.0    0.000    0.000   67.624   67.648
 qs_ks_build_kohn_sham_matrix        34  7.0    0.005    0.006   67.624   67.648
 make_m2s                          3010 11.1    0.094    0.097   65.623   66.466
 mp_deallocate_i                  12824 14.2   60.033   62.048   60.033   62.048
 dbcsr_data_release              102794 13.7    0.253    0.289   54.203   56.697
 make_images                       3010 12.1    0.124    0.127   39.936   40.352
 pw_transfer                       3411  9.9    0.160    0.206   36.620   37.816
 fft_wrap_pw1pw2                   3037 10.9    0.019    0.024   36.239   37.445
 qs_vxc_create                       34  8.0    0.002    0.005   36.168   36.245
 fft3d_ps                          3037 12.9   10.167   11.261   30.512   32.048
 setup_buffer_matrices             3010 12.1    0.040    0.041   30.586   31.898
 dbcsr_create_new                 17982 12.5    0.092    0.095   29.024   30.146
 dbcsr_make_index_exist           17982 13.5    0.043    0.045   28.481   29.589
 fft_wrap_pw1pw2_400                753 11.9    2.110    2.511   28.076   28.979
 qs_ot_get_p                         70  7.9    0.001    0.001   26.571   26.792
 dbcsr_make_images_dense           2700 12.3    0.038    0.039   25.550   26.336
 xc_vxc_pw_create                    34  9.0    0.390    0.479   25.516   25.621
 qs_rho_update_rho                   35  5.0    0.000    0.000   24.946   25.019
 calculate_rho_elec                  70  6.0   11.846   12.017   24.946   25.019
 sum_up_and_integrate                34  8.0    0.138    0.171   21.816   21.935
 integrate_v_rspace                  68  9.0   10.930   11.128   21.678   21.820
 mp_alltoall_z22v                  3037 14.9   18.135   20.388   18.135   20.388
 qs_ot_p2m_diag                      68  9.0    0.009    0.010   16.454   16.681
 dbcsr_special_finalize            3010 13.1    0.012    0.013   16.143   16.644
 quick_finalize                    3373 13.9    0.018    0.020   16.124   16.626
 qs_ot_get_orbitals                  68  8.0    0.000    0.000   15.459   15.590
 buffer_matrices_ensure_size       3010 12.1    0.171    0.195   14.132   14.588
 xc_rho_set_and_dset_create          34 10.0    0.223    0.252   13.494   14.407
 mp_waitall_1                    138896 13.3   12.295   14.324   12.295   14.324
 dbcsr_switch_data_area            9763 13.8    0.012    0.012   13.470   13.959
 yz_to_x                           1299 13.7    0.828    0.972   10.074   11.869
 rs_pw_transfer                     553  9.5    0.005    0.006   11.547   11.830
 density_rs2pw                       70  7.0    0.004    0.005   11.176   11.564
 calculate_dispersion_nonloc         34  9.0    0.966    1.191   10.650   10.759
 x_to_yz                           1600 14.1    1.271    1.529   10.155   10.583
 ot_diis_step                        34  9.0    0.003    0.003   10.571   10.571
 apply_preconditioner_dbcsr          70 10.0    0.000    0.000   10.440   10.524
 apply_single                        70 11.0    0.000    0.000   10.440   10.524
 potential_pw2rs                     68 10.0    0.018    0.020    9.331    9.479
 calculate_dm_sparse                 70  7.0    0.000    0.000    9.290    9.310
 make_images_sizes                 3010 13.1    0.005    0.005    7.310    9.040
 mp_alltoall_i44                   3010 14.1    7.306    9.035    7.306    9.035
 multiply_cannon_metrocomm1       12040 12.1    0.045    0.047    6.194    8.183
 mp_sum_l                          7254 11.2    5.919    7.689    5.919    7.689
 fft_wrap_pw1pw2_100               1870 12.0    0.337    0.466    6.847    7.402
 xc_functional_eval                  68 11.0    0.000    0.001    4.879    5.810
 libxc_lsd_eval                      68 12.0    4.878    5.810    4.879    5.810
 mp_allgather_i34                  1505 12.1    3.894    5.765    3.894    5.765
 -------------------------------------------------------------------------------

 The number of warnings for this run is : 1
 
 -------------------------------------------------------------------------------
  **** **** ******  **  PROGRAM ENDED AT                 2024-03-14 22:57:20.360
 ***** ** ***  *** **   PROGRAM RAN ON                                      tc16
 **    ****   ******    PROGRAM RAN BY                                  fambrosi
 ***** **    ** ** **   PROGRAM PROCESS ID                                  5353
  **** **  *******  **  PROGRAM STOPPED IN          /scratch/fambrosi.55024.tccw
