 DBCSR| Multiplication driver                                               BLAS
 DBCSR| Multrec recursion limit                                              512
 DBCSR| Multiplication stack size                                           1000
 DBCSR| Maximum elements for images                                    UNLIMITED
 DBCSR| Multiplicative factor virtual images                                   1
 DBCSR| Multiplication size stacks                                             3
 DBCSR| Number of 3D layers                                               SINGLE
 DBCSR| Use MPI memory allocation                                              T
 DBCSR| Use RMA algorithm                                                      F
 DBCSR| Use Communication thread                                               T
 DBCSR| Communication thread load                                             87


  **** **** ******  **  PROGRAM STARTED AT               2024-03-16 16:00:11.790
 ***** ** ***  *** **   PROGRAM STARTED ON                                  tc22
 **    ****   ******    PROGRAM STARTED BY                              fambrosi
 ***** **    ** ** **   PROGRAM PROCESS ID                                 13138
  **** **  *******  **  PROGRAM STARTED IN          /scratch/fambrosi.55147.tccw

 CP2K| version string:                                          CP2K version 6.1
 CP2K| source code revision number:                                    svn:18464
 CP2K| cp2kflags: libint fftw3 libxc parallel mpi3 scalapack has_no_shared_glibc
 CP2K|             libderiv_max_am1=5 libint_max_am=6 max_contr=4 mkl
 CP2K| is freely available from                            https://www.cp2k.org/
 CP2K| Program compiled at                         Mon Jun 25 12:26:44 CEST 2018
 CP2K| Program compiled on                                                  tccw
 CP2K| Program compiled for                     Linux-x86-64-intel.MPI-OPENMP.O2
 CP2K| Data directory path                           /home/edoardo/cp2k-6.1/data
 CP2K| Input file name        /home/fambrosi/hydroxyl/test-koopman/anion/hyb1/r/
 
 GLOBAL| Force Environment number                                              1
 GLOBAL| Basis set file name               /usr/local/cp2k-6.1/data/BASIS_MOLOPT
 GLOBAL| Potential file name             /usr/local/cp2k-6.1/data/GTH_POTENTIALS
 GLOBAL| MM Potential file name                                     MM_POTENTIAL
 GLOBAL| Coordinate file name                                      __STD_INPUT__
 GLOBAL| Method name                                                        CP2K
 GLOBAL| Project name                                               water+I-.dyn
 GLOBAL| Preferred FFT library                                             FFTW3
 GLOBAL| Preferred diagonalization lib.                                       SL
 GLOBAL| Run type                                                         ENERGY
 GLOBAL| All-to-all communication in single precision                          F
 GLOBAL| FFTs using library dependent lengths                                  T
 GLOBAL| Global print level                                                  LOW
 GLOBAL| Total number of message passing processes                            32
 GLOBAL| Number of threads for this process                                    1
 GLOBAL| This output is from process                                           0
 GLOBAL| CPU model name :  Intel(R) Xeon(R) CPU E5-2683 v4 @ 2.10GHz

 MEMORY| system memory details [Kb]
 MEMORY|                        rank 0           min           max       average
 MEMORY| MemTotal            264564496     264564496     264564496     264564496
 MEMORY| MemFree              74058872      74058872      74058872      74058872
 MEMORY| Buffers                185708        185708        185708        185708
 MEMORY| Cached              181642448     181642448     181642448     181642448
 MEMORY| Slab                  5769696       5769696       5769696       5769696
 MEMORY| SReclaimable          5696512       5696512       5696512       5696512
 MEMORY| MemLikelyFree       261583540     261583540     261583540     261583540

 
 GENERATE|  Preliminary Number of Bonds generated:                             0
 GENERATE|  Achieved consistency in connectivity generation.

 *******************************************************************************
 *******************************************************************************
 **                                                                           **
 **     #####                         ##              ##                      **
 **    ##   ##            ##          ##              ##                      **
 **   ##     ##                       ##            ######                    **
 **   ##     ##  ##   ##  ##   #####  ##  ##   ####   ##    #####    #####    **
 **   ##     ##  ##   ##  ##  ##      ## ##   ##      ##   ##   ##  ##   ##   **
 **   ##  ## ##  ##   ##  ##  ##      ####     ###    ##   ######   ######    **
 **    ##  ###   ##   ##  ##  ##      ## ##      ##   ##   ##       ##        **
 **     #######   #####   ##   #####  ##  ##  ####    ##    #####   ##        **
 **           ##                                                    ##        **
 **                                                                           **
 **                                                ... make the atoms dance   **
 **                                                                           **
 **            Copyright (C) by CP2K developers group (2000 - 2018)           **
 **                                                                           **
 *******************************************************************************


 TOTAL NUMBERS AND MAXIMUM NUMBERS

  Total number of            - Atomic kinds:                                   2
                             - Atoms:                                        191
                             - Shell sets:                                  1146
                             - Shells:                                      1338
                             - Primitive Cartesian functions:               1528
                             - Cartesian basis functions:                   4081
                             - Spherical basis functions:                   3634

  Maximum angular momentum of- Orbital basis functions:                        3
                             - Local part of the GTH pseudopotential:          2
                             - Non-local part of the GTH pseudopotential:      0

  AUX_FIT ADMM-Basis: 
  Total number of            - Shell sets:                                   510
                             - Shells:                                       510
                             - Primitive Cartesian functions:                765
                             - Cartesian basis functions:                    766
                             - Spherical basis functions:                    766
                               Maximum angular momentum                        1


 SCF PARAMETERS         Density guess:                                   RESTART
                        --------------------------------------------------------
                        max_scf:                                              50
                        max_scf_history:                                       0
                        max_diis:                                              4
                        --------------------------------------------------------
                        eps_scf:                                        1.00E-05
                        eps_scf_history:                                0.00E+00
                        eps_diis:                                       1.00E-01
                        eps_eigval:                                     1.00E-05
                        --------------------------------------------------------
                        level_shift [a.u.]:                                 0.00
                        --------------------------------------------------------
                        Outer loop SCF in use 
                        No variables optimised in outer loop
                        eps_scf                                         1.00E-05
                        max_scf                                               50
                        No outer loop optimization
                        step_size                                       5.00E-01

 Spin 1

 Number of electrons:                                                        256
 Number of occupied orbitals:                                                256
 Number of molecular orbitals:                                               256

 Spin 2

 Number of electrons:                                                        255
 Number of occupied orbitals:                                                255
 Number of molecular orbitals:                                               255

 Number of orbital functions:                                               3634
 Number of independent orbital functions:                                   3634

 Extrapolation method: initial_guess


 SCF WAVEFUNCTION OPTIMIZATION

  ----------------------------------- OT ---------------------------------------
  Minimizer      : CG                  : conjugate gradient
  Preconditioner : FULL_SINGLE_INVERSE : inversion of 
                                         H + eS - 2*(Sc)(c^T*H*c+const)(Sc)^T
  Precond_solver : DEFAULT
  Line search    : 2PNT                : 2 energies, one gradient
  stepsize       :    0.08000000                  energy_gap     :    0.08000000
  eps_taylor     :   0.10000E-15                  max_taylor     :             4
  ----------------------------------- OT ---------------------------------------

  Step     Update method      Time    Convergence         Total energy    Change
  ------------------------------------------------------------------------------

 *** WARNING in hfx_energy_potential.F:605 :: The Kohn Sham matrix is not  ***
 *** 100% occupied. This may result in incorrect Hartree-Fock results. Try ***
 *** to decrease EPS_PGF_ORB and EPS_FILTER_MATRIX in the QS section. For  ***
 *** more information see FAQ: https://www.cp2k.org/faq:hfx_eps_warning    ***

     1 OT CG       0.80E-01   82.7     0.00069508     -1099.2733522289 -1.10E+03
     2 OT LS       0.32E+00   15.3                    -1099.3378298569
     3 OT CG       0.32E+00   24.0     0.00025852     -1099.4434465074 -1.70E-01
     4 OT LS       0.17E+00   15.4                    -1099.4460537120
     5 OT CG       0.17E+00   23.8     0.00026968     -1099.4540643101 -1.06E-02
     6 OT LS       0.13E+00   15.4                    -1099.4621801147
     7 OT CG       0.13E+00   23.6     0.00016358     -1099.4629737095 -8.91E-03
     8 OT LS       0.24E+00   15.3                    -1099.4677434611
     9 OT CG       0.24E+00   23.7     0.00012873     -1099.4689746971 -6.00E-03
    10 OT LS       0.26E+00   15.3                    -1099.4729430309
    11 OT CG       0.26E+00   23.9     0.00016775     -1099.4729461631 -3.97E-03
    12 OT LS       0.13E+00   15.4                    -1099.4726872014
    13 OT CG       0.13E+00   23.9     0.00013720     -1099.4765594497 -3.61E-03
    14 OT LS       0.22E+00   15.1                    -1099.4798195668
    15 OT CG       0.22E+00   23.9     0.00010066     -1099.4805894693 -4.03E-03
    16 OT LS       0.23E+00   15.2                    -1099.4828206359
    17 OT CG       0.23E+00   23.8     0.00009094     -1099.4828219570 -2.23E-03
    18 OT LS       0.18E+00   15.1                    -1099.4841056388
    19 OT CG       0.18E+00   23.9     0.00008151     -1099.4842090327 -1.39E-03
    20 OT LS       0.25E+00   15.1                    -1099.4856390359
    21 OT CG       0.25E+00   23.9     0.00006424     -1099.4857775853 -1.57E-03
    22 OT LS       0.32E+00   15.1                    -1099.4869874155
    23 OT CG       0.32E+00   23.9     0.00006277     -1099.4870367550 -1.26E-03
    24 OT LS       0.16E+00   15.1                    -1099.4869451625
    25 OT CG       0.16E+00   24.0     0.00004300     -1099.4875928528 -5.56E-04
    26 OT LS       0.20E+00   15.3                    -1099.4879169989
    27 OT CG       0.20E+00   24.0     0.00002687     -1099.4879322068 -3.39E-04
    28 OT LS       0.35E+00   15.0                    -1099.4881230075
    29 OT CG       0.35E+00   24.0     0.00002306     -1099.4881670698 -2.35E-04
    30 OT LS       0.22E+00   15.1                    -1099.4882333931
    31 OT CG       0.22E+00   24.3     0.00001784     -1099.4882731148 -1.06E-04
    32 OT LS       0.17E+00   15.1                    -1099.4883203143
    33 OT CG       0.17E+00   24.3     0.00001346     -1099.4883237378 -5.06E-05
    34 OT LS       0.31E+00   15.1                    -1099.4883653817
    35 OT CG       0.31E+00   24.4     0.00001323     -1099.4883756526 -5.19E-05
    36 OT LS       0.35E+00   15.1                    -1099.4884322546
    37 OT CG       0.35E+00   24.2     0.00001441     -1099.4884331751 -5.75E-05
    38 OT LS       0.34E+00   15.2                    -1099.4884975852
    39 OT CG       0.34E+00   24.3     0.00001978     -1099.4884978016 -6.46E-05
    40 OT LS       0.34E+00   15.1                    -1099.4886198953
    41 OT CG       0.34E+00   24.1     0.00002565     -1099.4886198863 -1.22E-04
    42 OT LS       0.34E+00   15.3                    -1099.4888240941
    43 OT CG       0.34E+00   24.2     0.00002641     -1099.4888239481 -2.04E-04
    44 OT LS       0.36E+00   15.2                    -1099.4890417114
    45 OT CG       0.36E+00   24.1     0.00003008     -1099.4890415493 -2.18E-04
    46 OT LS       0.33E+00   15.1                    -1099.4893086600
    47 OT CG       0.33E+00   24.0     0.00003594     -1099.4893107192 -2.69E-04
    48 OT LS       0.23E+00   15.1                    -1099.4895354596
    49 OT CG       0.23E+00   23.9     0.00002667     -1099.4895871996 -2.76E-04
    50 OT LS       0.31E+00   15.1                    -1099.4897783028

  Leaving inner SCF loop after reaching    50 steps.


  Electronic density on regular grids:       -510.9999999999        0.0000000001
  Core density on regular grids:              510.9999999998       -0.0000000002
  Total charge density on r-space grids:       -0.0000000001
  Total charge density g-space grids:          -0.0000000001

  Overlap energy of the core charge distribution:               0.00000244632561
  Self energy of the core charge distribution:              -2836.80744583234036
  Core Hamiltonian energy:                                    823.15361583909362
  Hartree energy:                                            1181.89045577147022
  Exchange-correlation energy:                               -169.92216605944327
  Hartree-Fock Exchange energy:                               -99.95065630429437
  Dispersion energy:                                            2.14641583639644

  Total energy:                                             -1099.48977830279205

  outer SCF iter =    1 RMS gradient =   0.27E-04 energy =      -1099.4897783028

  ----------------------------------- OT ---------------------------------------
  Minimizer      : CG                  : conjugate gradient
  Preconditioner : FULL_SINGLE_INVERSE : inversion of 
                                         H + eS - 2*(Sc)(c^T*H*c+const)(Sc)^T
  Precond_solver : DEFAULT
  Line search    : 2PNT                : 2 energies, one gradient
  stepsize       :    0.08000000                  energy_gap     :    0.08000000
  eps_taylor     :   0.10000E-15                  max_taylor     :             4
  ----------------------------------- OT ---------------------------------------

  Step     Update method      Time    Convergence         Total energy    Change
  ------------------------------------------------------------------------------
     1 OT CG       0.80E-01   39.9     0.00002383     -1099.4897935897 -2.06E-04
     2 OT LS       0.10E+00   14.8                    -1099.4898448702
     3 OT CG       0.10E+00   21.9     0.00002036     -1099.4898473717 -5.38E-05
     4 OT LS       0.17E+00   15.1                    -1099.4899028214
     5 OT CG       0.17E+00   22.8     0.00001385     -1099.4899142407 -6.69E-05
     6 OT LS       0.17E+00   14.9                    -1099.4899438943
     7 OT CG       0.17E+00   22.7     0.00000814     -1099.4899439458 -2.97E-05

  *** SCF run converged in     7 steps ***


  Electronic density on regular grids:       -510.9999999999        0.0000000001
  Core density on regular grids:              510.9999999998       -0.0000000002
  Total charge density on r-space grids:       -0.0000000001
  Total charge density g-space grids:          -0.0000000001

  Overlap energy of the core charge distribution:               0.00000244632561
  Self energy of the core charge distribution:              -2836.80744583234036
  Core Hamiltonian energy:                                    823.10453426059644
  Hartree energy:                                            1181.93539494891183
  Exchange-correlation energy:                               -169.91962643835208
  Hartree-Fock Exchange energy:                               -99.94920937024477
  Dispersion energy:                                            2.14640603926982

  Total energy:                                             -1099.48994394583337

  outer SCF iter =    2 RMS gradient =   0.81E-05 energy =      -1099.4899439458
  outer SCF loop converged in   2 iterations or   57 steps


  Integrated absolute spin density  :                               1.1766151978
  Ideal and single determinant S**2 :                    0.750000       0.758126
  
  Eigenvalues of the occupied subspace spin            1
 ---------------------------------------------
      -1.15684116     -1.03273515     -1.02732781     -1.02503048
      -1.02292966     -1.01655506     -1.01468414     -1.01187033
      -1.00889771     -1.00135970     -1.00012298     -0.99872430
      -0.99853895     -0.99800767     -0.99706977     -0.99618574
      -0.99591034     -0.99516046     -0.99389977     -0.99121310
      -0.98992031     -0.98931259     -0.98854364     -0.98707520
      -0.98555212     -0.98423059     -0.98353575     -0.98251617
      -0.98155827     -0.97984625     -0.97940469     -0.97798049
      -0.97676452     -0.97657101     -0.97588108     -0.97457183
      -0.97135228     -0.96951963     -0.96860601     -0.96818085
      -0.96738327     -0.96536622     -0.96463857     -0.96199958
      -0.96130930     -0.96070019     -0.95939045     -0.95872517
      -0.95808048     -0.95754887     -0.95658535     -0.95593704
      -0.95385623     -0.95348664     -0.95240371     -0.94910053
      -0.94807227     -0.94787049     -0.94558470     -0.94275394
      -0.94160901     -0.93943016     -0.93479095     -0.93104470
      -0.56413608     -0.54665041     -0.54157438     -0.50464165
      -0.49658428     -0.49624905     -0.49438767     -0.49351680
      -0.49196482     -0.48919968     -0.48253974     -0.48181636
      -0.47932949     -0.47713507     -0.47676667     -0.47510065
      -0.47345123     -0.46907082     -0.46767129     -0.46623838
      -0.46514798     -0.46393292     -0.46371732     -0.46183342
      -0.46138726     -0.46099788     -0.46048939     -0.45885916
      -0.45772319     -0.45739405     -0.45423260     -0.45360926
      -0.45296454     -0.45188593     -0.45148072     -0.45043599
      -0.44928640     -0.44839758     -0.44717190     -0.44630616
      -0.44535012     -0.44436415     -0.44411227     -0.44115078
      -0.44079236     -0.44010762     -0.43894763     -0.43784819
      -0.43659641     -0.43550262     -0.43404589     -0.43346209
      -0.43260303     -0.43071873     -0.43010777     -0.42924069
      -0.42769799     -0.42550003     -0.42254460     -0.42154730
      -0.42040329     -0.41812574     -0.41670981     -0.41138985
      -0.41053823     -0.40761186     -0.39206823     -0.38512838
      -0.38067267     -0.37987216     -0.37572969     -0.37184438
      -0.37068612     -0.36803354     -0.36433623     -0.36335822
      -0.36072371     -0.35805726     -0.35510174     -0.35341565
      -0.35273898     -0.35029790     -0.34982899     -0.34768875
      -0.34674019     -0.34584832     -0.34449219     -0.34276578
      -0.34159040     -0.34061572     -0.33782434     -0.33669904
      -0.33517066     -0.33423551     -0.33360611     -0.33229715
      -0.33034569     -0.32875903     -0.32837559     -0.32551256
      -0.32496471     -0.32363024     -0.32160876     -0.31997304
      -0.31756748     -0.31649317     -0.31492202     -0.31394423
      -0.31218740     -0.31123779     -0.30970018     -0.30896590
      -0.30636497     -0.30461116     -0.30342681     -0.30208150
      -0.29883950     -0.29814056     -0.29807220     -0.29527840
      -0.29481253     -0.29306785     -0.29222413     -0.29130914
      -0.29083516     -0.28994052     -0.28674013     -0.28554598
      -0.28372461     -0.28287512     -0.28139124     -0.28078631
      -0.27808420     -0.27667897     -0.27651525     -0.27192645
      -0.27050055     -0.26984645     -0.26834286     -0.26508537
      -0.26297439     -0.26180388     -0.26107834     -0.25992647
      -0.25918891     -0.25810374     -0.25787450     -0.25666075
      -0.25576681     -0.25462698     -0.25389004     -0.25258342
      -0.25112067     -0.25037158     -0.24903264     -0.24850475
      -0.24768543     -0.24632580     -0.24489127     -0.24465233
      -0.24397441     -0.24377114     -0.24306148     -0.24211551
      -0.24209527     -0.24126039     -0.24097996     -0.23868922
      -0.23854804     -0.23719373     -0.23633623     -0.23559637
      -0.23524421     -0.23413756     -0.23305645     -0.23243936
      -0.23215209     -0.23128815     -0.22969187     -0.22917078
      -0.22879990     -0.22737725     -0.22530533     -0.22351382
      -0.22332017     -0.22312383     -0.22130025     -0.21918797
      -0.21730863     -0.21309596     -0.21117965     -0.20645653
 Fermi Energy [eV] :   -5.617968
  
  Eigenvalues of the occupied subspace spin            2
 ---------------------------------------------
      -1.07854735     -1.03254040     -1.02428248     -1.02286169
      -1.01714785     -1.01419893     -1.01227824     -1.01056610
      -1.00579720     -1.00063540     -0.99929168     -0.99864624
      -0.99803058     -0.99767826     -0.99701418     -0.99594486
      -0.99583171     -0.99509987     -0.99385867     -0.99100706
      -0.98973566     -0.98923438     -0.98826006     -0.98628805
      -0.98525256     -0.98389529     -0.98351503     -0.98251010
      -0.98155199     -0.97983635     -0.97938938     -0.97797662
      -0.97676078     -0.97654059     -0.97587901     -0.97457015
      -0.97133695     -0.96947500     -0.96857190     -0.96811927
      -0.96703971     -0.96535483     -0.96459721     -0.96199164
      -0.96130563     -0.96069578     -0.95937622     -0.95871748
      -0.95806993     -0.95751710     -0.95654947     -0.95590848
      -0.95383957     -0.95348374     -0.95239439     -0.94908344
      -0.94806889     -0.94786846     -0.94557996     -0.94274517
      -0.94159774     -0.93942940     -0.93477979     -0.93100424
      -0.54378579     -0.52835079     -0.50414827     -0.49765288
      -0.49648726     -0.49545689     -0.49402116     -0.49200178
      -0.49162905     -0.48227604     -0.48184536     -0.47941296
      -0.47779578     -0.47703526     -0.47573724     -0.47495077
      -0.47316495     -0.46882956     -0.46702320     -0.46596941
      -0.46481830     -0.46385005     -0.46249808     -0.46162367
      -0.46104727     -0.46046985     -0.46037153     -0.45838278
      -0.45765333     -0.45680341     -0.45349219     -0.45293640
      -0.45184189     -0.45142965     -0.45046917     -0.44969295
      -0.44835531     -0.44718105     -0.44627711     -0.44535514
      -0.44481986     -0.44418514     -0.44109033     -0.44077402
      -0.44013118     -0.43881347     -0.43794451     -0.43658517
      -0.43547732     -0.43401007     -0.43343969     -0.43240816
      -0.43062082     -0.42982167     -0.42841573     -0.42745825
      -0.42550673     -0.42230074     -0.42142439     -0.42040439
      -0.41811732     -0.41220955     -0.41134078     -0.40881161
      -0.40710729     -0.39189674     -0.38490843     -0.38237012
      -0.37877107     -0.37363007     -0.37175361     -0.37031971
      -0.36793349     -0.36470661     -0.36274179     -0.35978966
      -0.35774331     -0.35512559     -0.35443470     -0.35243681
      -0.34989776     -0.34815915     -0.34709801     -0.34616118
      -0.34520340     -0.34420987     -0.34271093     -0.34098381
      -0.34009512     -0.33761039     -0.33625826     -0.33447929
      -0.33336266     -0.33254352     -0.33130067     -0.33037678
      -0.32841325     -0.32683371     -0.32535194     -0.32394008
      -0.32156150     -0.32063442     -0.31903177     -0.31756315
      -0.31589007     -0.31486129     -0.31367691     -0.31150294
      -0.31047577     -0.30971477     -0.30857439     -0.30627409
      -0.30435805     -0.30295497     -0.30162858     -0.29869691
      -0.29802438     -0.29701028     -0.29514652     -0.29416518
      -0.29247380     -0.29136947     -0.29071001     -0.28994083
      -0.28942894     -0.28649549     -0.28544007     -0.28358454
      -0.28159987     -0.28132941     -0.28019062     -0.27705236
      -0.27645819     -0.27642613     -0.27184750     -0.27042319
      -0.26974345     -0.26831934     -0.26502470     -0.26292742
      -0.26175253     -0.26104503     -0.25989858     -0.25917961
      -0.25804584     -0.25786577     -0.25655326     -0.25574717
      -0.25461428     -0.25387771     -0.25250190     -0.25110866
      -0.25033505     -0.24901916     -0.24849613     -0.24765538
      -0.24632159     -0.24482185     -0.24461873     -0.24391982
      -0.24375351     -0.24302206     -0.24210290     -0.24204616
      -0.24123539     -0.24090122     -0.23865595     -0.23850870
      -0.23716235     -0.23624961     -0.23559170     -0.23519297
      -0.23411262     -0.23304158     -0.23242543     -0.23213318
      -0.23123018     -0.22968445     -0.22915672     -0.22875934
      -0.22737364     -0.22529468     -0.22351250     -0.22331251
      -0.22311703     -0.22129023     -0.21918004     -0.21718192
      -0.21308512     -0.21104871     -0.20635514
 Fermi Energy [eV] :   -5.615209
  
  Lowest Eigenvalues of the unoccupied subspace spin            1
 -----------------------------------------------------
  Reached convergence in           49  iterations 
       0.08144593
  
  Lowest Eigenvalues of the unoccupied subspace spin            2
 -----------------------------------------------------
  Reached convergence in           61  iterations 
      -0.14559262
  
 HOMO - LUMO gap [eV] :    7.834225
 HOMO - LUMO gap [eV] :    1.653432

 ENERGY| Total FORCE_EVAL ( QS ) energy (a.u.):            -1099.489943945833375


 -------------------------------------------------------------------------------
 -                                                                             -
 -                                DBCSR STATISTICS                             -
 -                                                                             -
 -------------------------------------------------------------------------------
 COUNTER                                    TOTAL       BLAS       SMM       ACC
 flops    63 x     1 x    31                 7812     100.0%      0.0%      0.0%
 flops    64 x     1 x    31                23808     100.0%      0.0%      0.0%
 flops    63 x     1 x    32                56448     100.0%      0.0%      0.0%
 flops    65 x     1 x    33               107250     100.0%      0.0%      0.0%
 flops   898 x     1 x    31               111352     100.0%      0.0%      0.0%
 flops    63 x     1 x   442               111384     100.0%      0.0%      0.0%
 flops     1 x     1 x   442               189176     100.0%      0.0%      0.0%
 flops    64 x     1 x    33               316800     100.0%      0.0%      0.0%
 flops   912 x     1 x    31               339264     100.0%      0.0%      0.0%
 flops    65 x     1 x    32               728000     100.0%      0.0%      0.0%
 flops    63 x     1 x   456               804384     100.0%      0.0%      0.0%
 flops     1 x     1 x   456              1366176     100.0%      0.0%      0.0%
 flops    65 x     1 x   442              1436500     100.0%      0.0%      0.0%
 flops   898 x     1 x    33              1481700     100.0%      0.0%      0.0%
 flops    31 x    31 x   442              1699048     100.0%      0.0%      0.0%
 flops    65 x    33 x   442              3792360     100.0%      0.0%      0.0%
 flops   912 x     1 x    33              4514400     100.0%      0.0%      0.0%
 flops    32 x    31 x   442              5261568     100.0%      0.0%      0.0%
 flops    64 x     1 x    32              6647808     100.0%      0.0%      0.0%
 flops    31 x    32 x   442              7015424     100.0%      0.0%      0.0%
 flops    65 x     1 x   456             10374000     100.0%      0.0%      0.0%
 flops    64 x    33 x   442             11202048     100.0%      0.0%      0.0%
 flops    64 x     1 x   442             12050688     100.0%      0.0%      0.0%
 flops    31 x    31 x   456             12270048     100.0%      0.0%      0.0%
 flops    14 x    31 x    31             13669264     100.0%      0.0%      0.0%
 flops    29 x    31 x    31             14268928     100.0%      0.0%      0.0%
 flops    65 x    32 x   442             25742080     100.0%      0.0%      0.0%
 flops   898 x     1 x    32             26034816     100.0%      0.0%      0.0%
 flops    65 x    33 x   456             27387360     100.0%      0.0%      0.0%
 flops    63 x    31 x    31             35478198     100.0%      0.0%      0.0%
 flops    32 x    31 x   456             37997568     100.0%      0.0%      0.0%
 flops   898 x     1 x   442             44454592     100.0%      0.0%      0.0%
 flops    14 x    32 x    31             49385728     100.0%      0.0%      0.0%
 flops    14 x    31 x    32             49385728     100.0%      0.0%      0.0%
 flops    31 x    32 x   456             50663424     100.0%      0.0%      0.0%
 flops    29 x    32 x    31             51552256     100.0%      0.0%      0.0%
 flops    29 x    31 x    32             51552256     100.0%      0.0%      0.0%
 flops   898 x    33 x   442             52392912     100.0%      0.0%      0.0%
 flops   912 x     1 x    32             79322112     100.0%      0.0%      0.0%
 flops    64 x    33 x   456             80898048     100.0%      0.0%      0.0%
 flops    64 x     1 x   456             87026688     100.0%      0.0%      0.0%
 flops    64 x    31 x    31            108124032     100.0%      0.0%      0.0%
 flops     2 x     2 x    31            114897408     100.0%      0.0%      0.0%
 flops    32 x    32 x   442            115867648     100.0%      0.0%      0.0%
 flops   912 x     1 x   442            135442944     100.0%      0.0%      0.0%
 flops   912 x    33 x   442            159629184     100.0%      0.0%      0.0%
 flops    65 x    32 x   456            185902080     100.0%      0.0%      0.0%
 flops     2 x     8 x    31            224310048     100.0%      0.0%      0.0%
 flops     8 x     2 x    31            224649312     100.0%      0.0%      0.0%
 flops    63 x    31 x   442            248609088     100.0%      0.0%      0.0%
 flops    63 x    31 x    32            256358592     100.0%      0.0%      0.0%
 flops    63 x    32 x    31            256358592     100.0%      0.0%      0.0%
 flops   898 x     1 x   456            321038592     100.0%      0.0%      0.0%
 flops   898 x    31 x    31            340013332     100.0%      0.0%      0.0%
 flops     8 x     8 x    31            360524544     100.0%      0.0%      0.0%
 flops   898 x    33 x   456            378366912     100.0%      0.0%      0.0%
 flops    64 x    31 x   442            757665792     100.0%      0.0%      0.0%
 flops   898 x    31 x   442            762872552     100.0%      0.0%      0.0%
 flops    64 x    32 x    31            781283328     100.0%      0.0%      0.0%
 flops    64 x    31 x    32            781283328     100.0%      0.0%      0.0%
 flops    32 x    32 x   456            836763648     100.0%      0.0%      0.0%
 flops    14 x    32 x    32            932184064     100.0%      0.0%      0.0%
 flops    29 x    32 x    32            973078528     100.0%      0.0%      0.0%
 flops   912 x     1 x   456            978130944     100.0%      0.0%      0.0%
 flops   912 x    31 x    31           1035942624     100.0%      0.0%      0.0%
 flops   912 x    33 x   456           1152797184     100.0%      0.0%      0.0%
 flops    14 x     1 x    14           1418092144     100.0%      0.0%      0.0%
 flops    29 x     1 x    14           1488649344     100.0%      0.0%      0.0%
 flops    14 x     1 x    29           1488649344     100.0%      0.0%      0.0%
 flops    29 x     1 x    29           1557020672     100.0%      0.0%      0.0%
 flops     2 x     2 x    32           1779056640     100.0%      0.0%      0.0%
 flops    63 x    31 x   456           1795385088     100.0%      0.0%      0.0%
 flops    63 x    32 x   442           1796401152     100.0%      0.0%      0.0%
 flops    63 x    32 x    32           1852397568     100.0%      0.0%      0.0%
 flops   912 x    31 x   442           2324297664     100.0%      0.0%      0.0%
 flops   898 x    32 x    31           2456870528     100.0%      0.0%      0.0%
 flops   898 x    31 x    32           2456870528     100.0%      0.0%      0.0%
 flops     2 x     8 x    32           3473187840     100.0%      0.0%      0.0%
 flops     8 x     2 x    32           3478440960     100.0%      0.0%      0.0%
 flops    64 x    31 x   456           5471649792     100.0%      0.0%      0.0%
 flops   898 x    31 x   456           5509251552     100.0%      0.0%      0.0%
 flops     8 x     8 x    32           5582315520     100.0%      0.0%      0.0%
 flops    14 x    14 x    31           5883293584     100.0%      0.0%      0.0%
 flops    29 x    14 x    31           6126260672     100.0%      0.0%      0.0%
 flops    14 x    29 x    31           6126260672     100.0%      0.0%      0.0%
 flops    29 x    29 x    31           6507321600     100.0%      0.0%      0.0%
 flops   912 x    31 x    32           7485520896     100.0%      0.0%      0.0%
 flops   912 x    32 x    31           7485520896     100.0%      0.0%      0.0%
 flops   898 x    32 x   442          12574298880     100.0%      0.0%      0.0%
 flops    63 x    32 x   456          12973105152     100.0%      0.0%      0.0%
 flops    64 x    32 x   442          14009122816     100.0%      0.0%      0.0%
 flops   912 x    31 x   456          16785425664     100.0%      0.0%      0.0%
 flops    64 x    32 x    32          16785473536     100.0%      0.0%      0.0%
 flops    14 x    31 x    14          19062672272     100.0%      0.0%      0.0%
 flops    29 x    31 x    14          20011135872     100.0%      0.0%      0.0%
 flops    14 x    31 x    29          20011135872     100.0%      0.0%      0.0%
 flops    29 x    31 x    29          20930215936     100.0%      0.0%      0.0%
 flops   912 x    32 x   442          38311004160     100.0%      0.0%      0.0%
 flops   898 x    32 x    32          40940294144     100.0%      0.0%      0.0%
 flops   898 x    32 x   456          90808058880     100.0%      0.0%      0.0%
 flops    14 x    14 x    32          91096158720     100.0%      0.0%      0.0%
 flops    29 x    14 x    32          94858229760     100.0%      0.0%      0.0%
 flops    14 x    29 x    32          94858229760     100.0%      0.0%      0.0%
 flops    29 x    29 x    32         100758528000     100.0%      0.0%      0.0%
 flops    64 x    32 x   456         101169954816     100.0%      0.0%      0.0%
 flops   912 x    32 x    32         124735684608     100.0%      0.0%      0.0%
 flops   912 x    32 x   456         276671324160     100.0%      0.0%      0.0%
 flops    14 x    32 x    14         293557623296     100.0%      0.0%      0.0%
 flops    29 x    32 x    14         308163588096     100.0%      0.0%      0.0%
 flops    14 x    32 x    29         308163588096     100.0%      0.0%      0.0%
 flops    29 x    32 x    29         322317058048     100.0%      0.0%      0.0%
 flops inhomo. stacks                     2414050     100.0%      0.0%      0.0%
 flops total                         2.536378E+12     100.0%      0.0%      0.0%
 flops max/rank                     81.166698E+09     100.0%      0.0%      0.0%
 matmuls inhomo. stacks                      1865     100.0%      0.0%      0.0%
 matmuls total                           98938671     100.0%      0.0%      0.0%
 number of processed stacks                835049     100.0%      0.0%      0.0%
 average stack size                                   118.5       0.0       0.0
 marketing flops                     2.967014E+12
 -------------------------------------------------------------------------------
 # multiplications                           3375
 max memory usage/rank             498.606080E+06
 # max total images/rank                        2
 # max 3D layers                                1
 # MPI messages exchanged                 2268000
 MPI messages size (bytes):
  total size                       493.666173E+09
  min size                           0.000000E+00
  max size                           3.326976E+06
  average size                     217.665859E+03
 MPI breakdown and total messages size (bytes):
             size <=      128              885248                    78960
       128 < size <=     8192              517664               3968159552
      8192 < size <=    32768              204512               3755669232
     32768 < size <=   131072              328832              36451757216
    131072 < size <=  4194304              331744             449490611920
   4194304 < size <= 16777216                   0                        0
  16777216 < size                               0                        0
 -------------------------------------------------------------------------------

 *** WARNING in dbcsr/mm/dbcsr_mm.F:268 :: Using a non-square number of ***
 *** MPI ranks might lead to poor performance.                          ***
 *** Used ranks: 32                                                     ***
 *** Suggested: 36 64                                                   ***

 -------------------------------------------------------------------------------
 
 MEMORY| Estimated peak process memory [MiB]                                 476

 -------------------------------------------------------------------------------
 -                                                                             -
 -                         MESSAGE PASSING PERFORMANCE                         -
 -                                                                             -
 -------------------------------------------------------------------------------

 ROUTINE             CALLS      AVE VOLUME [Bytes]
 MP_Group              461
 MP_Bcast             3710                 441179.
 MP_Allreduce        25071                    369.
 MP_Sync               784
 MP_Alltoall         22433                2033799.
 MP_ISendRecv        28830                  75193.
 MP_Wait            317056
 MP_comm_split         264
 MP_ISend           173656                 133037.
 MP_IRecv           173236                 133839.
 MP_Recv                42                 930304.
 MP_Memory          196230
 MP_Write_All            4                 614304.
 -------------------------------------------------------------------------------


 -------------------------------------------------------------------------------
 -                                                                             -
 -                           R E F E R E N C E S                               -
 -                                                                             -
 -------------------------------------------------------------------------------
 
 CP2K version 6.1, the CP2K developers group (2018).
 CP2K is freely available from https://www.cp2k.org/ .

 Schuett, Ole; Messmer, Peter; Hutter, Juerg; VandeVondele, Joost. 
 Electronic Structure Calculations on Graphics Processing Units, John Wiley & Sons, Ltd, 173-190 (2016). 
 GPU-Accelerated Sparse Matrix-Matrix Multiplication for Linear Scaling Density Functional Theory.
 http://dx.doi.org/10.1002/9781118670712.ch8


 Borstnik, U; VandeVondele, J; Weber, V; Hutter, J. 
 PARALLEL COMPUTING, 40 (5-6), 47-58 (2014). 
 Sparse matrix multiplication: The distributed block-compressed sparse
 row library.
 http://dx.doi.org/10.1016/j.parco.2014.03.012


 Hutter, J; Iannuzzi, M; Schiffmann, F; VandeVondele, J. 
 WILEY INTERDISCIPLINARY REVIEWS-COMPUTATIONAL MOLECULAR SCIENCE, 4 (1), 15-25 (2014). 
 CP2K: atomistic simulations of condensed matter systems.
 http://dx.doi.org/10.1002/wcms.1159


 Sabatini, R; Gorni, T; de Gironcoli, S. 
 Phys. Rev. B, 87 (4), 041108(R) (2013). 
 Nonlocal van der Waals density functional made simple and efficient.
 http://dx.doi.org/10.1103/PhysRevB.87.041108


 Guidon, M; Hutter, J; VandeVondele, J. 
 JOURNAL OF CHEMICAL THEORY AND COMPUTATION, 6 (8), 2348-2364 (2010). 
 Auxiliary Density Matrix Methods for Hartree-Fock Exchange Calculations.
 http://dx.doi.org/10.1021/ct1002225


 Guidon, M; Hutter, J; VandeVondele, J. 
 JOURNAL OF CHEMICAL THEORY AND COMPUTATION, 5 (11), 3010-3021 (2009). 
 Robust Periodic Hartree-Fock Exchange for Large-Scale Simulations Using
 Gaussian Basis Sets.
 http://dx.doi.org/10.1021/ct900494g


 Roman-Perez, G; Soler, JM. 
 Phys. Rev. Lett., 103 (9), 096102 (2009). 
 Efficient Implementation of a van der Waals Density Functional:
 Application to Double-Wall Carbon Nanotubes.
 http://dx.doi.org/10.1103/PhysRevLett.103.096102


 Guidon, M; Schiffmann, F; Hutter, J; VandeVondele, J. 
 JOURNAL OF CHEMICAL PHYSICS, 128 (21), 214104 (2008). 
 Ab initio molecular dynamics using hybrid density functionals.
 http://dx.doi.org/10.1063/1.2931945


 VandeVondele, J; Hutter, J. 
 JOURNAL OF CHEMICAL PHYSICS, 127 (11), 114105 (2007). 
 Gaussian basis sets for accurate calculations on molecular systems in
 gas and condensed phases.
 http://dx.doi.org/10.1063/1.2770708


 Krack, M. 
 THEORETICAL CHEMISTRY ACCOUNTS, 114 (1-3), 145-152 (2005). 
 Pseudopotentials for H to Kr optimized for gradient-corrected
 exchange-correlation functionals.
 http://dx.doi.org/10.1007/s00214-005-0655-y


 VandeVondele, J; Krack, M; Mohamed, F; Parrinello, M; Chassaing, T;
 Hutter, J. COMPUTER PHYSICS COMMUNICATIONS, 167 (2), 103-128 (2005). 
 QUICKSTEP: Fast and accurate density functional calculations using a
 mixed Gaussian and plane waves approach.
 http://dx.doi.org/10.1016/j.cpc.2004.12.014


 Frigo, M; Johnson, SG. 
 PROCEEDINGS OF THE IEEE, 93 (2), 216-231 (2005). 
 The design and implementation of FFTW3.
 http://dx.doi.org/10.1109/JPROC.2004.840301


 Heyd, J; Scuseria, GE. 
 JOURNAL OF CHEMICAL PHYSICS, 120 (16), 7274-7280 (2004). 
 Assessment and validation of a screened Coulomb hybrid density
 functional.
 http://dx.doi.org/10.1063/1.1668634


 VandeVondele, J; Hutter, J. 
 JOURNAL OF CHEMICAL PHYSICS, 118 (10), 4365-4369 (2003). 
 An efficient orbital transformation method for electronic structure
 calculations.
 http://dx.doi.org/10.1063/1.1543154


 Hartwigsen, C; Goedecker, S; Hutter, J. 
 PHYSICAL REVIEW B, 58 (7), 3641-3662 (1998). 
 Relativistic separable dual-space Gaussian pseudopotentials from H to Rn.
 http://dx.doi.org/10.1103/PhysRevB.58.3641


 Lippert, G; Hutter, J; Parrinello, M. 
 MOLECULAR PHYSICS, 92 (3), 477-487 (1997). 
 A hybrid Gaussian and plane wave density functional scheme.
 http://dx.doi.org/10.1080/002689797170220


 Perdew, JP; Burke, K; Ernzerhof, M. 
 PHYSICAL REVIEW LETTERS, 77 (18), 3865-3868 (1996). 
 Generalized gradient approximation made simple.
 http://dx.doi.org/10.1103/PhysRevLett.77.3865


 Goedecker, S; Teter, M; Hutter, J. 
 PHYSICAL REVIEW B, 54 (3), 1703-1710 (1996). 
 Separable dual-space Gaussian pseudopotentials.
 http://dx.doi.org/10.1103/PhysRevB.54.1703


 -------------------------------------------------------------------------------
 -                                                                             -
 -                                T I M I N G                                  -
 -                                                                             -
 -------------------------------------------------------------------------------
 SUBROUTINE                       CALLS  ASD         SELF TIME        TOTAL TIME
                                MAXIMUM       AVERAGE  MAXIMUM  AVERAGE  MAXIMUM
 CP2K                                 1  1.0    0.086    0.093 1422.986 1422.987
 qs_energies                          1  2.0    0.000    0.000 1421.892 1421.892
 scf_env_do_scf                       1  3.0    0.000    0.000 1176.355 1176.355
 scf_env_do_scf_inner_loop           57  4.0    0.003    0.004 1078.292 1078.301
 qs_ks_update_qs_env                 59  5.0    0.001    0.001  854.053  854.056
 rebuild_ks_matrix                   57  6.0    0.001    0.001  853.857  853.860
 qs_ks_build_kohn_sham_matrix        57  7.0    0.009    0.011  853.857  853.860
 dbcsr_multiply_generic            3375  9.0    0.231    0.238  519.258  519.590
 hfx_ks_matrix                       57  8.0    0.002    0.003  434.326  434.469
 integrate_four_center               57  9.0    0.298    0.522  434.136  434.276
 integrate_four_center_main          57 10.0    0.016    0.018  415.232  423.994
 integrate_four_center_bin         3648 11.0  415.216  423.978  415.216  423.978
 qs_vxc_create                      114  8.0    0.006    0.008  289.113  289.190
 multiply_cannon                   3375 10.0    0.597    0.614  274.534  275.592
 mp_deallocate_d                  55380 13.1  255.097  256.052  255.097  256.052
 qs_scf_new_mos                      57  5.0    0.000    0.001  247.510  247.524
 qs_scf_loop_do_ot                   57  6.0    0.001    0.001  247.510  247.523
 xc_rho_set_and_dset_create         114 10.0    0.992    1.051  229.878  243.063
 scf_post_calculation_gpw             1  3.0    0.000    0.000  242.996  242.996
 make_lumo                            1  4.0    0.000    0.000  240.799  240.800
 ot_eigensolver                       2  5.0    0.002    0.003  240.190  240.191
 ot_mini                            167  6.7    0.001    0.001  239.099  239.105
 ot_scf_mini                         57  7.0    0.004    0.004  227.140  227.150
 qs_ot_get_derivative               114  8.0    0.001    0.001  213.728  213.751
 dbcsr_destroy                    48595 10.8    0.176    0.181  203.649  203.919
 xc_functional_eval                 285 11.0    0.002    0.003  183.976  196.926
 mp_deallocate_i                  42970 13.1  193.466  194.587  193.466  194.587
 make_m2s                          6750 10.0    0.227    0.240  181.836  182.706
 xc_vxc_pw_create                    58  9.0    0.981    1.035  163.234  163.234
 dbcsr_data_release              238130 12.6    0.912    1.016  151.388  151.705
 pw_transfer                       5819 10.1    0.369    0.449  115.475  127.987
 fft_wrap_pw1pw2                   5220 11.1    0.045    0.053  114.275  126.763
 make_images                       6750 11.0    0.340    0.349  113.128  113.972
 fft_wrap_pw1pw2_400               1791 12.3    9.814   11.480  100.931  113.615
 xpbe_hole_t_c_lr_lsd_eval          114 12.0  103.526  110.046  103.526  110.046
 calculate_rho_elec                 230  7.5   50.949   51.678  108.112  108.146
 xc_exc_calc                         56  9.0    0.102    0.106  107.061  107.061
 qs_ot_get_p                        232  7.0    0.002    0.002  102.218  102.691
 qs_ot_get_derivative_diag           70  8.7    0.002    0.002  102.295  102.305
 setup_buffer_matrices             6750 11.0    0.133    0.137   98.456   98.571
 fft3d_ps                          5220 13.1   46.664   48.393   85.371   98.326
 init_scf_loop                        2  4.0    0.000    0.000   98.049   98.050
 dbcsr_create_new                 50434 11.6    0.277    0.284   93.811   94.348
 dbcsr_make_index_exist           50434 12.6    0.136    0.141   91.958   92.521
 xwpbe_lsd_eval                     114 12.0   69.478   76.848   69.478   76.848
 qs_rho_update_rho                   58  5.0    0.001    0.001   68.953   68.973
 dbcsr_make_images_dense           5868 11.3    0.115    0.121   68.381   68.479
 qs_ot_get_orbitals                 228  7.0    0.001    0.002   65.698   65.746
 admm_mo_calc_rho_aux                57  8.0    0.001    0.001   64.519   64.616
 qs_ot_get_derivative_taylor         44  9.6    0.002    0.002   58.897   58.906
 density_rs2pw                      230  8.5    0.016    0.018   51.476   52.479
 dbcsr_special_finalize           10125 12.0    0.040    0.041   51.387   52.223
 sum_up_and_integrate                29  8.0    0.390    0.410   48.043   48.047
 integrate_v_rspace                 116  9.0   23.953   24.278   47.643   47.695
 buffer_matrices_ensure_size       6750 11.0    0.921    0.951   45.223   46.090
 quick_finalize                    9839 13.0    0.049    0.054   43.121   43.928
 mp_alltoall_z22v                  5220 15.1   26.109   42.754   26.109   42.754
 qs_ot_p2m_diag                     146  7.7    0.013    0.013   42.142   42.168
 rs_pw_transfer                    1401  9.9    0.016    0.018   39.446   40.218
 dbcsr_switch_data_area           26705 12.9    0.033    0.034   38.862   39.044
 mp_waitall_1                    301634 12.3   34.514   35.775   34.514   35.775
 yz_to_x                           2657 13.8    4.477    5.043   20.616   35.309
 -------------------------------------------------------------------------------

 The number of warnings for this run is : 2
 
 -------------------------------------------------------------------------------
  **** **** ******  **  PROGRAM ENDED AT                 2024-03-16 16:23:55.362
 ***** ** ***  *** **   PROGRAM RAN ON                                      tc22
 **    ****   ******    PROGRAM RAN BY                                  fambrosi
 ***** **    ** ** **   PROGRAM PROCESS ID                                 13138
  **** **  *******  **  PROGRAM STOPPED IN          /scratch/fambrosi.55147.tccw
