 DBCSR| Multiplication driver                                               BLAS
 DBCSR| Multrec recursion limit                                              512
 DBCSR| Multiplication stack size                                           1000
 DBCSR| Maximum elements for images                                    UNLIMITED
 DBCSR| Multiplicative factor virtual images                                   1
 DBCSR| Multiplication size stacks                                             3
 DBCSR| Number of 3D layers                                               SINGLE
 DBCSR| Use MPI memory allocation                                              T
 DBCSR| Use RMA algorithm                                                      F
 DBCSR| Use Communication thread                                               T
 DBCSR| Communication thread load                                             87


  **** **** ******  **  PROGRAM STARTED AT               2024-03-16 17:09:51.804
 ***** ** ***  *** **   PROGRAM STARTED ON                                  tc23
 **    ****   ******    PROGRAM STARTED BY                              fambrosi
 ***** **    ** ** **   PROGRAM PROCESS ID                                 17327
  **** **  *******  **  PROGRAM STARTED IN          /scratch/fambrosi.55156.tccw

 CP2K| version string:                                          CP2K version 6.1
 CP2K| source code revision number:                                    svn:18464
 CP2K| cp2kflags: libint fftw3 libxc parallel mpi3 scalapack has_no_shared_glibc
 CP2K|             libderiv_max_am1=5 libint_max_am=6 max_contr=4 mkl
 CP2K| is freely available from                            https://www.cp2k.org/
 CP2K| Program compiled at                         Mon Jun 25 12:26:44 CEST 2018
 CP2K| Program compiled on                                                  tccw
 CP2K| Program compiled for                     Linux-x86-64-intel.MPI-OPENMP.O2
 CP2K| Data directory path                           /home/edoardo/cp2k-6.1/data
 CP2K| Input file name        /home/fambrosi/hydroxyl/test-koopman/anion/koop3/e
 
 GLOBAL| Force Environment number                                              1
 GLOBAL| Basis set file name               /usr/local/cp2k-6.1/data/BASIS_MOLOPT
 GLOBAL| Potential file name             /usr/local/cp2k-6.1/data/GTH_POTENTIALS
 GLOBAL| MM Potential file name                                     MM_POTENTIAL
 GLOBAL| Coordinate file name                                      __STD_INPUT__
 GLOBAL| Method name                                                        CP2K
 GLOBAL| Project name                                               water+I-.dyn
 GLOBAL| Preferred FFT library                                             FFTW3
 GLOBAL| Preferred diagonalization lib.                                       SL
 GLOBAL| Run type                                                         ENERGY
 GLOBAL| All-to-all communication in single precision                          F
 GLOBAL| FFTs using library dependent lengths                                  T
 GLOBAL| Global print level                                                  LOW
 GLOBAL| Total number of message passing processes                            32
 GLOBAL| Number of threads for this process                                    1
 GLOBAL| This output is from process                                           0
 GLOBAL| CPU model name :  Intel(R) Xeon(R) CPU E5-2683 v4 @ 2.10GHz

 MEMORY| system memory details [Kb]
 MEMORY|                        rank 0           min           max       average
 MEMORY| MemTotal            264564380     264564380     264564380     264564380
 MEMORY| MemFree              33521672      33521672      33521672      33521672
 MEMORY| Buffers                197644        197644        197644        197644
 MEMORY| Cached              221565980     221565980     221565980     221565980
 MEMORY| Slab                  6357616       6357616       6357616       6357616
 MEMORY| SReclaimable          6283360       6283360       6283360       6283360
 MEMORY| MemLikelyFree       261568656     261568656     261568656     261568656

 
 GENERATE|  Preliminary Number of Bonds generated:                             0
 GENERATE|  Achieved consistency in connectivity generation.

 *******************************************************************************
 *******************************************************************************
 **                                                                           **
 **     #####                         ##              ##                      **
 **    ##   ##            ##          ##              ##                      **
 **   ##     ##                       ##            ######                    **
 **   ##     ##  ##   ##  ##   #####  ##  ##   ####   ##    #####    #####    **
 **   ##     ##  ##   ##  ##  ##      ## ##   ##      ##   ##   ##  ##   ##   **
 **   ##  ## ##  ##   ##  ##  ##      ####     ###    ##   ######   ######    **
 **    ##  ###   ##   ##  ##  ##      ## ##      ##   ##   ##       ##        **
 **     #######   #####   ##   #####  ##  ##  ####    ##    #####   ##        **
 **           ##                                                    ##        **
 **                                                                           **
 **                                                ... make the atoms dance   **
 **                                                                           **
 **            Copyright (C) by CP2K developers group (2000 - 2018)           **
 **                                                                           **
 *******************************************************************************


 TOTAL NUMBERS AND MAXIMUM NUMBERS

  Total number of            - Atomic kinds:                                   2
                             - Atoms:                                        191
                             - Shell sets:                                  1146
                             - Shells:                                      1338
                             - Primitive Cartesian functions:               1528
                             - Cartesian basis functions:                   4081
                             - Spherical basis functions:                   3634

  Maximum angular momentum of- Orbital basis functions:                        3
                             - Local part of the GTH pseudopotential:          2
                             - Non-local part of the GTH pseudopotential:      0

  AUX_FIT ADMM-Basis: 
  Total number of            - Shell sets:                                   510
                             - Shells:                                       510
                             - Primitive Cartesian functions:                765
                             - Cartesian basis functions:                    766
                             - Spherical basis functions:                    766
                               Maximum angular momentum                        1


 SCF PARAMETERS         Density guess:                                   RESTART
                        --------------------------------------------------------
                        max_scf:                                              50
                        max_scf_history:                                       0
                        max_diis:                                              4
                        --------------------------------------------------------
                        eps_scf:                                        1.00E-05
                        eps_scf_history:                                0.00E+00
                        eps_diis:                                       1.00E-01
                        eps_eigval:                                     1.00E-05
                        --------------------------------------------------------
                        level_shift [a.u.]:                                 0.00
                        --------------------------------------------------------
                        Outer loop SCF in use 
                        No variables optimised in outer loop
                        eps_scf                                         1.00E-05
                        max_scf                                               50
                        No outer loop optimization
                        step_size                                       5.00E-01

 Number of electrons:                                                        512
 Number of occupied orbitals:                                                256
 Number of molecular orbitals:                                               256

 Number of orbital functions:                                               3634
 Number of independent orbital functions:                                   3634

 Extrapolation method: initial_guess


 SCF WAVEFUNCTION OPTIMIZATION

  ----------------------------------- OT ---------------------------------------
  Minimizer      : CG                  : conjugate gradient
  Preconditioner : FULL_SINGLE_INVERSE : inversion of 
                                         H + eS - 2*(Sc)(c^T*H*c+const)(Sc)^T
  Precond_solver : DEFAULT
  Line search    : 2PNT                : 2 energies, one gradient
  stepsize       :    0.08000000                  energy_gap     :    0.08000000
  eps_taylor     :   0.10000E-15                  max_taylor     :             4
  ----------------------------------- OT ---------------------------------------

  Step     Update method      Time    Convergence         Total energy    Change
  ------------------------------------------------------------------------------

 *** WARNING in hfx_energy_potential.F:605 :: The Kohn Sham matrix is not  ***
 *** 100% occupied. This may result in incorrect Hartree-Fock results. Try ***
 *** to decrease EPS_PGF_ORB and EPS_FILTER_MATRIX in the QS section. For  ***
 *** more information see FAQ: https://www.cp2k.org/faq:hfx_eps_warning    ***

     1 OT CG       0.80E-01   75.3     0.00165384     -1099.2982548317 -1.10E+03
     2 OT LS       0.18E+00   10.4                    -1099.4569342152
     3 OT CG       0.18E+00   16.2     0.00059759     -1099.5288681944 -2.31E-01
     4 OT LS       0.78E-01   10.3                    -1099.5190967930
     5 OT CG       0.78E-01   16.2     0.00021128     -1099.5418350306 -1.30E-02
     6 OT LS       0.92E-01   10.4                    -1099.5437018155
     7 OT CG       0.92E-01   16.2     0.00009042     -1099.5437453779 -1.91E-03
     8 OT LS       0.85E-01   10.3                    -1099.5440685785
     9 OT CG       0.85E-01   16.0     0.00003943     -1099.5440704342 -3.25E-04
    10 OT LS       0.92E-01   10.4                    -1099.5441369033
    11 OT CG       0.92E-01   16.4     0.00001486     -1099.5441372852 -6.69E-05
    12 OT LS       0.10E+00   10.3                    -1099.5441475038
    13 OT CG       0.10E+00   16.2     0.00000611     -1099.5441475641 -1.03E-05

  *** SCF run converged in    13 steps ***


  Electronic density on regular grids:       -511.9999999999        0.0000000001
  Core density on regular grids:              510.9999999998       -0.0000000002
  Total charge density on r-space grids:       -1.0000000001
  Total charge density g-space grids:          -1.0000000001

  Overlap energy of the core charge distribution:               0.00000197409867
  Self energy of the core charge distribution:              -2836.80744583234036
  Core Hamiltonian energy:                                    822.90646761483276
  Hartree energy:                                            1182.33855872733420
  Exchange-correlation energy:                               -152.54418088390349
  Hartree-Fock Exchange energy:                              -117.58338330929942
  Dispersion energy:                                            2.14583414522337

  Total energy:                                             -1099.54414756405436

  outer SCF iter =    1 RMS gradient =   0.61E-05 energy =      -1099.5441475641
  outer SCF loop converged in   1 iterations or   13 steps

  
  Eigenvalues of the occupied subspace spin            1
 ---------------------------------------------
      -1.05505073     -1.04755411     -1.04429305     -1.04361423
      -1.04232913     -1.04131897     -1.03963055     -1.03757381
      -1.03599481     -1.03521272     -1.03235695     -1.03043078
      -1.02894581     -1.02804242     -1.02596257     -1.02552479
      -1.02348525     -1.02254272     -1.02127429     -1.02053104
      -1.02002069     -1.01858140     -1.01831408     -1.01744225
      -1.01687366     -1.01581450     -1.01528088     -1.01413614
      -1.01339751     -1.01309171     -1.01027001     -1.00905227
      -1.00793952     -1.00717706     -1.00656970     -1.00588999
      -1.00577523     -1.00502916     -1.00430351     -1.00278223
      -1.00267963     -1.00081068     -0.99896877     -0.99860167
      -0.99715868     -0.99586230     -0.99472769     -0.99214476
      -0.99095698     -0.99022194     -0.98904322     -0.98867407
      -0.98702550     -0.98241814     -0.98150060     -0.98061664
      -0.97950438     -0.97757200     -0.97695709     -0.97381248
      -0.97317746     -0.96301860     -0.96025555     -0.90737207
      -0.51818170     -0.51329376     -0.50864689     -0.50824173
      -0.50663533     -0.50620178     -0.50314855     -0.50177861
      -0.50061223     -0.49728794     -0.49633444     -0.49498993
      -0.49449771     -0.49326261     -0.49137603     -0.48930658
      -0.48898444     -0.48780459     -0.48714231     -0.48646889
      -0.48611318     -0.48535839     -0.48369553     -0.48270633
      -0.48125901     -0.47965338     -0.47710291     -0.47665973
      -0.47586980     -0.47520881     -0.47494537     -0.47404084
      -0.47294703     -0.47110317     -0.47103012     -0.47019135
      -0.46980060     -0.46870154     -0.46705680     -0.46641743
      -0.46382927     -0.46321097     -0.46183654     -0.46157098
      -0.46129470     -0.45951011     -0.45844210     -0.45630878
      -0.45429656     -0.45338226     -0.45306046     -0.45141961
      -0.45067080     -0.44974137     -0.44870302     -0.44834242
      -0.44745848     -0.44613182     -0.44303167     -0.44238163
      -0.43846109     -0.43588059     -0.42751041     -0.41434770
      -0.40946810     -0.40439022     -0.40195321     -0.40047106
      -0.39702844     -0.39349911     -0.39004815     -0.38941496
      -0.38499363     -0.38370963     -0.38167390     -0.37892586
      -0.37833568     -0.37591911     -0.37293858     -0.37282815
      -0.37127998     -0.36790425     -0.36629994     -0.36613103
      -0.36543329     -0.36468359     -0.36207754     -0.36091803
      -0.35907719     -0.35700051     -0.35591877     -0.35291860
      -0.35157728     -0.35002641     -0.34871254     -0.34769465
      -0.34671174     -0.34509274     -0.34406788     -0.34346675
      -0.34169321     -0.34152017     -0.33864218     -0.33561268
      -0.33524680     -0.33451711     -0.33362708     -0.33216989
      -0.33020523     -0.32870824     -0.32652706     -0.32499527
      -0.32284322     -0.32227095     -0.32040066     -0.31839973
      -0.31642781     -0.31417043     -0.31155466     -0.31060714
      -0.30599116     -0.30362821     -0.30323306     -0.30176421
      -0.29989192     -0.29842985     -0.29493933     -0.29386805
      -0.29258390     -0.29166708     -0.28968138     -0.28915230
      -0.28743331     -0.28568801     -0.28509056     -0.28454670
      -0.28163205     -0.28109263     -0.28072938     -0.27986773
      -0.27933360     -0.27839573     -0.27800009     -0.27737262
      -0.27642902     -0.27619067     -0.27582868     -0.27409359
      -0.27371511     -0.27320874     -0.27283586     -0.27205842
      -0.27133569     -0.27086769     -0.27065440     -0.26927138
      -0.26884366     -0.26852088     -0.26750775     -0.26683272
      -0.26587148     -0.26550132     -0.26511852     -0.26343121
      -0.26265044     -0.26182922     -0.26152546     -0.26058016
      -0.25988808     -0.25904165     -0.25886070     -0.25786912
      -0.25741240     -0.25693320     -0.25641804     -0.25332159
      -0.25248104     -0.25151399     -0.25004570     -0.24787339
      -0.24676087     -0.24663041     -0.24537645     -0.24369026
      -0.24217244     -0.23647990     -0.23621659     -0.23439512
      -0.23137145     -0.22756607     -0.20465309     -0.20331745
 Fermi Energy [eV] :   -5.532549
  
  Lowest Eigenvalues of the unoccupied subspace spin            1
 -----------------------------------------------------
  Reached convergence in           53  iterations 
       0.10948871
  
 HOMO - LUMO gap [eV] :    8.511889

 ENERGY| Total FORCE_EVAL ( QS ) energy (a.u.):            -1099.544147564054356


 -------------------------------------------------------------------------------
 -                                                                             -
 -                                DBCSR STATISTICS                             -
 -                                                                             -
 -------------------------------------------------------------------------------
 COUNTER                                    TOTAL       BLAS       SMM       ACC
 flops     1 x     1 x   442                91052     100.0%      0.0%      0.0%
 flops    65 x     1 x    33               115830     100.0%      0.0%      0.0%
 flops    64 x     1 x    33               342144     100.0%      0.0%      0.0%
 flops     1 x     1 x   456               657552     100.0%      0.0%      0.0%
 flops    65 x     1 x    32               786240     100.0%      0.0%      0.0%
 flops    65 x     1 x   442              1551420     100.0%      0.0%      0.0%
 flops   898 x     1 x    33              1600236     100.0%      0.0%      0.0%
 flops    64 x     1 x    32              2584576     100.0%      0.0%      0.0%
 flops    65 x    33 x   442              3792360     100.0%      0.0%      0.0%
 flops   912 x     1 x    33              4875552     100.0%      0.0%      0.0%
 flops    64 x     1 x   442              5035264     100.0%      0.0%      0.0%
 flops    64 x    33 x   442             11202048     100.0%      0.0%      0.0%
 flops    65 x     1 x   456             11203920     100.0%      0.0%      0.0%
 flops   898 x     1 x    32             11781760     100.0%      0.0%      0.0%
 flops   898 x     1 x   442             21433464     100.0%      0.0%      0.0%
 flops    65 x    32 x   442             25742080     100.0%      0.0%      0.0%
 flops    65 x    33 x   456             27387360     100.0%      0.0%      0.0%
 flops    32 x    32 x   442             32587776     100.0%      0.0%      0.0%
 flops   912 x     1 x    32             35896320     100.0%      0.0%      0.0%
 flops    64 x     1 x   456             36363264     100.0%      0.0%      0.0%
 flops   898 x    33 x   442             52392912     100.0%      0.0%      0.0%
 flops   912 x     1 x   442             65302848     100.0%      0.0%      0.0%
 flops    64 x    33 x   456             80898048     100.0%      0.0%      0.0%
 flops   898 x     1 x   456            154786464     100.0%      0.0%      0.0%
 flops   912 x    33 x   442            159629184     100.0%      0.0%      0.0%
 flops    65 x    32 x   456            185902080     100.0%      0.0%      0.0%
 flops     2 x     2 x    32            216399872     100.0%      0.0%      0.0%
 flops    32 x    32 x   456            235339776     100.0%      0.0%      0.0%
 flops    14 x    32 x    32            262176768     100.0%      0.0%      0.0%
 flops    29 x    32 x    32            273678336     100.0%      0.0%      0.0%
 flops   898 x    33 x   456            378366912     100.0%      0.0%      0.0%
 flops     8 x     2 x    32            422682624     100.0%      0.0%      0.0%
 flops     2 x     8 x    32            423854080     100.0%      0.0%      0.0%
 flops   912 x     1 x   456            471598848     100.0%      0.0%      0.0%
 flops     8 x     8 x    32            679444480     100.0%      0.0%      0.0%
 flops    14 x     1 x    14            683861640     100.0%      0.0%      0.0%
 flops    29 x     1 x    14            717976896     100.0%      0.0%      0.0%
 flops    14 x     1 x    29            717976896     100.0%      0.0%      0.0%
 flops    29 x     1 x    29            750585772     100.0%      0.0%      0.0%
 flops   912 x    33 x   456           1152797184     100.0%      0.0%      0.0%
 flops   898 x    32 x   442           1981404672     100.0%      0.0%      0.0%
 flops    64 x    32 x   442           2103721984     100.0%      0.0%      0.0%
 flops    64 x    32 x    32           2717908992     100.0%      0.0%      0.0%
 flops   898 x    32 x    32           5296619520     100.0%      0.0%      0.0%
 flops   912 x    32 x   442           6036885504     100.0%      0.0%      0.0%
 flops    14 x    14 x    32          12147810304     100.0%      0.0%      0.0%
 flops    29 x    14 x    32          12645685248     100.0%      0.0%      0.0%
 flops    14 x    29 x    32          12651505664     100.0%      0.0%      0.0%
 flops    29 x    29 x    32          13428442112     100.0%      0.0%      0.0%
 flops   898 x    32 x   456          14309148672     100.0%      0.0%      0.0%
 flops    64 x    32 x   456          15192489984     100.0%      0.0%      0.0%
 flops   912 x    32 x    32          16137584640     100.0%      0.0%      0.0%
 flops    14 x    32 x    14          43365611520     100.0%      0.0%      0.0%
 flops   912 x    32 x   456          43596693504     100.0%      0.0%      0.0%
 flops    29 x    32 x    14          45528956928     100.0%      0.0%      0.0%
 flops    14 x    32 x    29          45528956928     100.0%      0.0%      0.0%
 flops    29 x    32 x    29          47596778496     100.0%      0.0%      0.0%
 flops inhomo. stacks                     1163474     100.0%      0.0%      0.0%
 flops total                       348.588050E+09     100.0%      0.0%      0.0%
 flops max/rank                     11.722536E+09     100.0%      0.0%      0.0%
 matmuls inhomo. stacks                       937     100.0%      0.0%      0.0%
 matmuls total                           15898072     100.0%      0.0%      0.0%
 number of processed stacks                120753     100.0%      0.0%      0.0%
 average stack size                                   131.7       0.0       0.0
 marketing flops                   402.946097E+09
 -------------------------------------------------------------------------------
 # multiplications                           1019
 max memory usage/rank             415.145984E+06
 # max total images/rank                        2
 # max 3D layers                                1
 # MPI messages exchanged                  684768
 MPI messages size (bytes):
  total size                       141.839909E+09
  min size                           0.000000E+00
  max size                           3.326976E+06
  average size                     207.135719E+03
 MPI breakdown and total messages size (bytes):
             size <=      128              451472                    42336
       128 < size <=     8192               85456                575445920
      8192 < size <=    32768               30464                547235304
     32768 < size <=   131072               43232               4832304064
    131072 < size <=  4194304               74144             135885171296
   4194304 < size <= 16777216                   0                        0
  16777216 < size                               0                        0
 -------------------------------------------------------------------------------

 *** WARNING in dbcsr/mm/dbcsr_mm.F:268 :: Using a non-square number of ***
 *** MPI ranks might lead to poor performance.                          ***
 *** Used ranks: 32                                                     ***
 *** Suggested: 36 64                                                   ***

 -------------------------------------------------------------------------------
 
 MEMORY| Estimated peak process memory [MiB]                                 397

 -------------------------------------------------------------------------------
 -                                                                             -
 -                         MESSAGE PASSING PERFORMANCE                         -
 -                                                                             -
 -------------------------------------------------------------------------------

 ROUTINE             CALLS      AVE VOLUME [Bytes]
 MP_Group              106
 MP_Bcast             1400                1160565.
 MP_Allreduce         7206                    479.
 MP_Sync               127
 MP_Alltoall          5221                1158577.
 MP_ISendRecv         3410                  73612.
 MP_Wait             87088
 MP_comm_split          55
 MP_ISend            49426                 111446.
 MP_IRecv            49222                 112389.
 MP_Recv                 7                 930304.
 MP_Memory           58776
 -------------------------------------------------------------------------------


 -------------------------------------------------------------------------------
 -                                                                             -
 -                           R E F E R E N C E S                               -
 -                                                                             -
 -------------------------------------------------------------------------------
 
 CP2K version 6.1, the CP2K developers group (2018).
 CP2K is freely available from https://www.cp2k.org/ .

 Schuett, Ole; Messmer, Peter; Hutter, Juerg; VandeVondele, Joost. 
 Electronic Structure Calculations on Graphics Processing Units, John Wiley & Sons, Ltd, 173-190 (2016). 
 GPU-Accelerated Sparse Matrix-Matrix Multiplication for Linear Scaling Density Functional Theory.
 http://dx.doi.org/10.1002/9781118670712.ch8


 Borstnik, U; VandeVondele, J; Weber, V; Hutter, J. 
 PARALLEL COMPUTING, 40 (5-6), 47-58 (2014). 
 Sparse matrix multiplication: The distributed block-compressed sparse
 row library.
 http://dx.doi.org/10.1016/j.parco.2014.03.012


 Hutter, J; Iannuzzi, M; Schiffmann, F; VandeVondele, J. 
 WILEY INTERDISCIPLINARY REVIEWS-COMPUTATIONAL MOLECULAR SCIENCE, 4 (1), 15-25 (2014). 
 CP2K: atomistic simulations of condensed matter systems.
 http://dx.doi.org/10.1002/wcms.1159


 Sabatini, R; Gorni, T; de Gironcoli, S. 
 Phys. Rev. B, 87 (4), 041108(R) (2013). 
 Nonlocal van der Waals density functional made simple and efficient.
 http://dx.doi.org/10.1103/PhysRevB.87.041108


 Guidon, M; Hutter, J; VandeVondele, J. 
 JOURNAL OF CHEMICAL THEORY AND COMPUTATION, 6 (8), 2348-2364 (2010). 
 Auxiliary Density Matrix Methods for Hartree-Fock Exchange Calculations.
 http://dx.doi.org/10.1021/ct1002225


 Guidon, M; Hutter, J; VandeVondele, J. 
 JOURNAL OF CHEMICAL THEORY AND COMPUTATION, 5 (11), 3010-3021 (2009). 
 Robust Periodic Hartree-Fock Exchange for Large-Scale Simulations Using
 Gaussian Basis Sets.
 http://dx.doi.org/10.1021/ct900494g


 Roman-Perez, G; Soler, JM. 
 Phys. Rev. Lett., 103 (9), 096102 (2009). 
 Efficient Implementation of a van der Waals Density Functional:
 Application to Double-Wall Carbon Nanotubes.
 http://dx.doi.org/10.1103/PhysRevLett.103.096102


 Guidon, M; Schiffmann, F; Hutter, J; VandeVondele, J. 
 JOURNAL OF CHEMICAL PHYSICS, 128 (21), 214104 (2008). 
 Ab initio molecular dynamics using hybrid density functionals.
 http://dx.doi.org/10.1063/1.2931945


 VandeVondele, J; Hutter, J. 
 JOURNAL OF CHEMICAL PHYSICS, 127 (11), 114105 (2007). 
 Gaussian basis sets for accurate calculations on molecular systems in
 gas and condensed phases.
 http://dx.doi.org/10.1063/1.2770708


 Krack, M. 
 THEORETICAL CHEMISTRY ACCOUNTS, 114 (1-3), 145-152 (2005). 
 Pseudopotentials for H to Kr optimized for gradient-corrected
 exchange-correlation functionals.
 http://dx.doi.org/10.1007/s00214-005-0655-y


 VandeVondele, J; Krack, M; Mohamed, F; Parrinello, M; Chassaing, T;
 Hutter, J. COMPUTER PHYSICS COMMUNICATIONS, 167 (2), 103-128 (2005). 
 QUICKSTEP: Fast and accurate density functional calculations using a
 mixed Gaussian and plane waves approach.
 http://dx.doi.org/10.1016/j.cpc.2004.12.014


 Frigo, M; Johnson, SG. 
 PROCEEDINGS OF THE IEEE, 93 (2), 216-231 (2005). 
 The design and implementation of FFTW3.
 http://dx.doi.org/10.1109/JPROC.2004.840301


 Heyd, J; Scuseria, GE. 
 JOURNAL OF CHEMICAL PHYSICS, 120 (16), 7274-7280 (2004). 
 Assessment and validation of a screened Coulomb hybrid density
 functional.
 http://dx.doi.org/10.1063/1.1668634


 VandeVondele, J; Hutter, J. 
 JOURNAL OF CHEMICAL PHYSICS, 118 (10), 4365-4369 (2003). 
 An efficient orbital transformation method for electronic structure
 calculations.
 http://dx.doi.org/10.1063/1.1543154


 Hartwigsen, C; Goedecker, S; Hutter, J. 
 PHYSICAL REVIEW B, 58 (7), 3641-3662 (1998). 
 Relativistic separable dual-space Gaussian pseudopotentials from H to Rn.
 http://dx.doi.org/10.1103/PhysRevB.58.3641


 Lippert, G; Hutter, J; Parrinello, M. 
 MOLECULAR PHYSICS, 92 (3), 477-487 (1997). 
 A hybrid Gaussian and plane wave density functional scheme.
 http://dx.doi.org/10.1080/002689797170220


 Perdew, JP; Burke, K; Ernzerhof, M. 
 PHYSICAL REVIEW LETTERS, 77 (18), 3865-3868 (1996). 
 Generalized gradient approximation made simple.
 http://dx.doi.org/10.1103/PhysRevLett.77.3865


 Goedecker, S; Teter, M; Hutter, J. 
 PHYSICAL REVIEW B, 54 (3), 1703-1710 (1996). 
 Separable dual-space Gaussian pseudopotentials.
 http://dx.doi.org/10.1103/PhysRevB.54.1703


 -------------------------------------------------------------------------------
 -                                                                             -
 -                                T I M I N G                                  -
 -                                                                             -
 -------------------------------------------------------------------------------
 SUBROUTINE                       CALLS  ASD         SELF TIME        TOTAL TIME
                                MAXIMUM       AVERAGE  MAXIMUM  AVERAGE  MAXIMUM
 CP2K                                 1  1.0    0.191    0.197  367.452  367.453
 qs_energies                          1  2.0    0.000    0.000  366.109  366.110
 scf_env_do_scf                       1  3.0    0.000    0.000  235.436  235.438
 qs_ks_update_qs_env                 14  5.0    0.000    0.000  190.676  190.681
 rebuild_ks_matrix                   13  6.0    0.000    0.000  190.622  190.627
 qs_ks_build_kohn_sham_matrix        13  7.0    0.002    0.003  190.622  190.627
 dbcsr_multiply_generic            1019  8.4    0.064    0.068  164.295  164.707
 scf_env_do_scf_inner_loop           13  4.0    0.001    0.001  162.672  162.701
 scf_post_calculation_gpw             1  3.0    0.000    0.001  128.770  128.773
 make_lumo                            1  4.0    0.000    0.000  128.231  128.233
 ot_eigensolver                       1  5.0    0.001    0.001  127.720  127.722
 hfx_ks_matrix                       13  8.0    0.000    0.001  120.827  120.897
 integrate_four_center               13  9.0    0.125    0.362  120.787  120.867
 integrate_four_center_main          13 10.0    0.005    0.005  110.427  112.423
 integrate_four_center_bin          832 11.0  110.422  112.418  110.422  112.418
 multiply_cannon                   1019  9.4    0.192    0.212   87.626   88.520
 mp_deallocate_d                  16650 12.5   78.473   79.086   78.473   79.086
 ot_mini                             66  6.4    0.000    0.000   78.143   78.153
 init_scf_loop                        1  4.0    0.000    0.000   72.732   72.732
 qs_ot_get_derivative                34  7.4    0.000    0.000   69.232   69.237
 dbcsr_destroy                    14314 10.2    0.051    0.054   61.569   61.777
 mp_deallocate_i                  12819 12.5   58.581   59.410   58.581   59.410
 make_m2s                          2038  9.4    0.061    0.063   56.784   57.199
 qs_vxc_create                       26  8.0    0.002    0.004   47.060   47.146
 dbcsr_data_release               69651 12.0    0.434    0.500   46.044   46.250
 make_images                       2038 10.4    0.101    0.109   36.112   36.531
 xc_rho_set_and_dset_create          26 10.0    0.122    0.143   32.486   34.155
 qs_ot_get_p                         69  6.4    0.001    0.001   32.689   33.075
 qs_scf_new_mos                      13  5.0    0.000    0.000   31.691   31.706
 qs_scf_loop_do_ot                   13  6.0    0.000    0.000   31.691   31.706
 setup_buffer_matrices             2038 10.4    0.040    0.042   30.384   30.511
 pw_transfer                        926 10.0    0.063    0.069   28.956   30.330
 fft_wrap_pw1pw2                    841 11.0    0.009    0.009   28.548   29.828
 dbcsr_create_new                 14863 11.0    0.080    0.084   29.060   29.311
 ot_scf_mini                         13  7.0    0.001    0.001   29.078   29.104
 dbcsr_make_index_exist           14863 12.0    0.041    0.042   28.340   28.644
 qs_ot_get_derivative_diag           19  8.0    0.001    0.001   28.114   28.120
 xc_vxc_pw_create                    14  9.0    0.077    0.088   26.324   26.324
 fft_wrap_pw1pw2_400                217 12.2    2.315    2.839   23.973   25.564
 qs_ot_get_derivative_taylor         15  8.9    0.001    0.001   24.825   24.832
 xc_functional_eval                  65 11.0    0.001    0.001   21.636   23.011
 fft3d_ps                           841 13.0   10.094   11.651   21.486   22.985
 dbcsr_make_images_dense           1752 10.7    0.030    0.032   20.582   20.644
 qs_ot_get_orbitals                  68  6.4    0.000    0.000   19.529   19.552
 calculate_rho_elec                  27  7.4    6.102    6.227   19.249   19.257
 dbcsr_special_finalize            3057 11.4    0.012    0.012   15.305   15.823
 mp_waitall_1                     85262 11.8   13.994   15.481   13.994   15.481
 buffer_matrices_ensure_size       2038 10.4    0.420    0.685   14.935   15.320
 xc_exc_calc                         12  9.0    0.022    0.023   14.303   14.303
 quick_finalize                    2997 12.4    0.015    0.017   13.454   13.975
 xpbe_hole_t_c_lr_lda_eval           26 12.0   11.775   12.435   11.775   12.435
 dbcsr_switch_data_area            8001 12.4    0.010    0.010   12.233   12.372
 multiply_cannon_metrocomm3        8152 10.4    0.038    0.043   10.150   12.252
 density_rs2pw                       27  8.4    0.002    0.003   11.572   11.803
 qs_rho_update_rho                   14  5.0    0.000    0.000   11.790   11.796
 qs_ot_p2m_diag                      40  7.0    0.001    0.001   11.593   11.612
 mp_alltoall_z22v                   841 15.0    7.977   11.508    7.977   11.508
 admm_mo_calc_rho_aux                13  8.0    0.000    0.000   10.708   10.757
 apply_preconditioner_dbcsr          37  8.4    0.000    0.000    9.539    9.676
 apply_single                        37  9.4    0.000    0.000    9.539    9.676
 xwpbe_lda_eval                      26 12.0    8.151    9.010    8.151    9.010
 ot_new_cg_direction                 34  7.4    0.000    0.000    8.865    8.872
 qs_ot_p2m_taylor                    29  7.9    0.001    0.001    8.615    8.626
 rs_pw_transfer                     165 10.0    0.002    0.002    7.982    8.169
 sum_up_and_integrate                 7  8.0    0.081    0.099    8.092    8.124
 integrate_v_rspace                  14  9.0    2.898    2.974    8.008    8.081
 x_to_yz                            388 14.2    2.496    3.704    6.345    7.422
 -------------------------------------------------------------------------------

 The number of warnings for this run is : 2
 
 -------------------------------------------------------------------------------
  **** **** ******  **  PROGRAM ENDED AT                 2024-03-16 17:15:59.761
 ***** ** ***  *** **   PROGRAM RAN ON                                      tc23
 **    ****   ******    PROGRAM RAN BY                                  fambrosi
 ***** **    ** ** **   PROGRAM PROCESS ID                                 17327
  **** **  *******  **  PROGRAM STOPPED IN          /scratch/fambrosi.55156.tccw
