 DBCSR| Multiplication driver                                               BLAS
 DBCSR| Multrec recursion limit                                              512
 DBCSR| Multiplication stack size                                           1000
 DBCSR| Maximum elements for images                                    UNLIMITED
 DBCSR| Multiplicative factor virtual images                                   1
 DBCSR| Multiplication size stacks                                             3
 DBCSR| Number of 3D layers                                               SINGLE
 DBCSR| Use MPI memory allocation                                              T
 DBCSR| Use RMA algorithm                                                      F
 DBCSR| Use Communication thread                                               T
 DBCSR| Communication thread load                                             87


  **** **** ******  **  PROGRAM STARTED AT               2024-03-15 23:42:18.772
 ***** ** ***  *** **   PROGRAM STARTED ON                                  tc13
 **    ****   ******    PROGRAM STARTED BY                              fambrosi
 ***** **    ** ** **   PROGRAM PROCESS ID                                  5302
  **** **  *******  **  PROGRAM STARTED IN          /scratch/fambrosi.55104.tccw

 CP2K| version string:                                          CP2K version 6.1
 CP2K| source code revision number:                                    svn:18464
 CP2K| cp2kflags: libint fftw3 libxc parallel mpi3 scalapack has_no_shared_glibc
 CP2K|             libderiv_max_am1=5 libint_max_am=6 max_contr=4 mkl
 CP2K| is freely available from                            https://www.cp2k.org/
 CP2K| Program compiled at                         Mon Jun 25 12:26:44 CEST 2018
 CP2K| Program compiled on                                                  tccw
 CP2K| Program compiled for                     Linux-x86-64-intel.MPI-OPENMP.O2
 CP2K| Data directory path                           /home/edoardo/cp2k-6.1/data
 CP2K| Input file name        /home/fambrosi/hydroxyl/test-koopman/radical/hyb3/
 
 GLOBAL| Force Environment number                                              1
 GLOBAL| Basis set file name               /usr/local/cp2k-6.1/data/BASIS_MOLOPT
 GLOBAL| Potential file name             /usr/local/cp2k-6.1/data/GTH_POTENTIALS
 GLOBAL| MM Potential file name                                     MM_POTENTIAL
 GLOBAL| Coordinate file name                                      __STD_INPUT__
 GLOBAL| Method name                                                        CP2K
 GLOBAL| Project name                                               water+I-.dyn
 GLOBAL| Preferred FFT library                                             FFTW3
 GLOBAL| Preferred diagonalization lib.                                       SL
 GLOBAL| Run type                                                         ENERGY
 GLOBAL| All-to-all communication in single precision                          F
 GLOBAL| FFTs using library dependent lengths                                  T
 GLOBAL| Global print level                                                  LOW
 GLOBAL| Total number of message passing processes                            32
 GLOBAL| Number of threads for this process                                    1
 GLOBAL| This output is from process                                           0
 GLOBAL| CPU model name :  Intel(R) Xeon(R) CPU E5-2683 v4 @ 2.10GHz

 MEMORY| system memory details [Kb]
 MEMORY|                        rank 0           min           max       average
 MEMORY| MemTotal            264564492     264564492     264564492     264564492
 MEMORY| MemFree             228362000     228362000     228362000     228362000
 MEMORY| Buffers                223644        223644        223644        223644
 MEMORY| Cached               32506828      32506828      32506828      32506828
 MEMORY| Slab                   567012        567012        567012        567012
 MEMORY| SReclaimable           494164        494164        494164        494164
 MEMORY| MemLikelyFree       261586636     261586636     261586636     261586636

 
 GENERATE|  Preliminary Number of Bonds generated:                             0
 GENERATE|  Achieved consistency in connectivity generation.

 *******************************************************************************
 *******************************************************************************
 **                                                                           **
 **     #####                         ##              ##                      **
 **    ##   ##            ##          ##              ##                      **
 **   ##     ##                       ##            ######                    **
 **   ##     ##  ##   ##  ##   #####  ##  ##   ####   ##    #####    #####    **
 **   ##     ##  ##   ##  ##  ##      ## ##   ##      ##   ##   ##  ##   ##   **
 **   ##  ## ##  ##   ##  ##  ##      ####     ###    ##   ######   ######    **
 **    ##  ###   ##   ##  ##  ##      ## ##      ##   ##   ##       ##        **
 **     #######   #####   ##   #####  ##  ##  ####    ##    #####   ##        **
 **           ##                                                    ##        **
 **                                                                           **
 **                                                ... make the atoms dance   **
 **                                                                           **
 **            Copyright (C) by CP2K developers group (2000 - 2018)           **
 **                                                                           **
 *******************************************************************************


 TOTAL NUMBERS AND MAXIMUM NUMBERS

  Total number of            - Atomic kinds:                                   2
                             - Atoms:                                        191
                             - Shell sets:                                  1146
                             - Shells:                                      1338
                             - Primitive Cartesian functions:               1528
                             - Cartesian basis functions:                   4081
                             - Spherical basis functions:                   3634

  Maximum angular momentum of- Orbital basis functions:                        3
                             - Local part of the GTH pseudopotential:          2
                             - Non-local part of the GTH pseudopotential:      0

  AUX_FIT ADMM-Basis: 
  Total number of            - Shell sets:                                   510
                             - Shells:                                       510
                             - Primitive Cartesian functions:                765
                             - Cartesian basis functions:                    766
                             - Spherical basis functions:                    766
                               Maximum angular momentum                        1


 SCF PARAMETERS         Density guess:                                   RESTART
                        --------------------------------------------------------
                        max_scf:                                              50
                        max_scf_history:                                       0
                        max_diis:                                              4
                        --------------------------------------------------------
                        eps_scf:                                        1.00E-05
                        eps_scf_history:                                0.00E+00
                        eps_diis:                                       1.00E-01
                        eps_eigval:                                     1.00E-05
                        --------------------------------------------------------
                        level_shift [a.u.]:                                 0.00
                        --------------------------------------------------------
                        Outer loop SCF in use 
                        No variables optimised in outer loop
                        eps_scf                                         1.00E-05
                        max_scf                                               50
                        No outer loop optimization
                        step_size                                       5.00E-01

 Number of electrons:                                                        512
 Number of occupied orbitals:                                                256
 Number of molecular orbitals:                                               256

 Number of orbital functions:                                               3634
 Number of independent orbital functions:                                   3634

 Extrapolation method: initial_guess


 SCF WAVEFUNCTION OPTIMIZATION

  ----------------------------------- OT ---------------------------------------
  Minimizer      : CG                  : conjugate gradient
  Preconditioner : FULL_SINGLE_INVERSE : inversion of 
                                         H + eS - 2*(Sc)(c^T*H*c+const)(Sc)^T
  Precond_solver : DEFAULT
  Line search    : 2PNT                : 2 energies, one gradient
  stepsize       :    0.08000000                  energy_gap     :    0.08000000
  eps_taylor     :   0.10000E-15                  max_taylor     :             4
  ----------------------------------- OT ---------------------------------------

  Step     Update method      Time    Convergence         Total energy    Change
  ------------------------------------------------------------------------------

 *** WARNING in hfx_energy_potential.F:605 :: The Kohn Sham matrix is not  ***
 *** 100% occupied. This may result in incorrect Hartree-Fock results. Try ***
 *** to decrease EPS_PGF_ORB and EPS_FILTER_MATRIX in the QS section. For  ***
 *** more information see FAQ: https://www.cp2k.org/faq:hfx_eps_warning    ***

     1 OT CG       0.80E-01   72.8     0.00165396     -1099.5674692880 -1.10E+03
     2 OT LS       0.12E+00    9.4                    -1099.7020742634
     3 OT CG       0.12E+00   14.5     0.00123852     -1099.7179235776 -1.50E-01
     4 OT LS       0.33E-01    9.3                    -1099.5821314732
     5 OT CG       0.33E-01   13.7     0.00071027     -1099.7413978881 -2.35E-02
     6 OT LS       0.32E-01    9.2                    -1099.7488637007
     7 OT CG       0.32E-01   13.9     0.00034847     -1099.7488697461 -7.47E-03
     8 OT LS       0.50E-01    9.4                    -1099.7513163292
     9 OT CG       0.50E-01   14.3     0.00018517     -1099.7516816741 -2.81E-03
    10 OT LS       0.51E-01    9.4                    -1099.7524964135
    11 OT CG       0.51E-01   14.0     0.00011457     -1099.7524969470 -8.15E-04
    12 OT LS       0.35E-01    9.3                    -1099.7526653534
    13 OT CG       0.35E-01   14.0     0.00007804     -1099.7527106949 -2.14E-04
    14 OT LS       0.41E-01    9.2                    -1099.7528247975
    15 OT CG       0.41E-01   13.9     0.00003875     -1099.7528274449 -1.17E-04
    16 OT LS       0.57E-01    9.3                    -1099.7528640642
    17 OT CG       0.57E-01   14.0     0.00002373     -1099.7528669904 -3.95E-05
    18 OT LS       0.39E-01    9.3                    -1099.7528750005
    19 OT CG       0.39E-01   14.1     0.00001659     -1099.7528771519 -1.02E-05
    20 OT LS       0.37E-01    9.4                    -1099.7528818629
    21 OT CG       0.37E-01   14.5     0.00000908     -1099.7528818753 -4.72E-06

  *** SCF run converged in    21 steps ***


  Electronic density on regular grids:       -511.9999999999        0.0000000001
  Core density on regular grids:              510.9999999998       -0.0000000002
  Total charge density on r-space grids:       -1.0000000001
  Total charge density g-space grids:          -1.0000000001

  Overlap energy of the core charge distribution:               0.00000311766455
  Self energy of the core charge distribution:              -2836.80744583234036
  Core Hamiltonian energy:                                    827.67161334426100
  Hartree energy:                                            1178.75828978696654
  Exchange-correlation energy:                               -170.96648570610370
  Hartree-Fock Exchange energy:                              -100.55667397963200
  Dispersion energy:                                            2.14781739390407

  Total energy:                                             -1099.75288187527985

  outer SCF iter =    1 RMS gradient =   0.91E-05 energy =      -1099.7528818753
  outer SCF loop converged in   1 iterations or   21 steps

  
  Eigenvalues of the occupied subspace spin            1
 ---------------------------------------------
      -1.03456825     -1.02968106     -1.02468680     -1.01989994
      -1.01914055     -1.01667456     -1.01533210     -1.01166814
      -1.01020282     -1.00955816     -1.00923495     -1.00842570
      -1.00780698     -1.00594355     -1.00409423     -1.00308524
      -1.00188954     -1.00124193     -1.00064591     -0.99978717
      -0.99650022     -0.99581863     -0.99460852     -0.99397204
      -0.99363202     -0.99238940     -0.99148861     -0.99032273
      -0.98859202     -0.98766403     -0.98727946     -0.98618806
      -0.98479600     -0.98410673     -0.98284441     -0.98183533
      -0.98118844     -0.98084113     -0.97846658     -0.97720268
      -0.97667569     -0.97586967     -0.97449670     -0.97388069
      -0.97227770     -0.97149763     -0.96947421     -0.96810323
      -0.96655973     -0.96508978     -0.96447946     -0.96154484
      -0.95995581     -0.95963485     -0.95813001     -0.95689678
      -0.95587686     -0.95497174     -0.95233890     -0.95099295
      -0.94704238     -0.94349518     -0.93551840     -0.69860238
      -0.52109364     -0.51269328     -0.50538420     -0.50407502
      -0.50034336     -0.49700634     -0.49538627     -0.49324257
      -0.49248175     -0.48881280     -0.48807595     -0.48541621
      -0.48328986     -0.48245591     -0.48149900     -0.48141952
      -0.48039985     -0.47905815     -0.47880360     -0.47815390
      -0.47752776     -0.47732703     -0.47611077     -0.47597323
      -0.47474969     -0.47449032     -0.47342522     -0.47301660
      -0.47286673     -0.47177980     -0.47053886     -0.46938464
      -0.46805664     -0.46763464     -0.46638705     -0.46628423
      -0.46596365     -0.46504894     -0.46258299     -0.46208336
      -0.46109307     -0.45972758     -0.45943193     -0.45762947
      -0.45731611     -0.45595875     -0.45541372     -0.45496818
      -0.45455785     -0.45395105     -0.45299692     -0.44991354
      -0.44469010     -0.44382717     -0.44250918     -0.44173610
      -0.43843607     -0.43620271     -0.43428372     -0.42753245
      -0.42316108     -0.42278009     -0.41623649     -0.39718681
      -0.39266015     -0.39052360     -0.38764346     -0.38465188
      -0.38223490     -0.37808736     -0.37717230     -0.37245400
      -0.37135348     -0.36939236     -0.36828319     -0.36525357
      -0.36111460     -0.36029370     -0.35807825     -0.35776944
      -0.35628838     -0.35563105     -0.35435163     -0.35112587
      -0.35055650     -0.34777445     -0.34604884     -0.34422720
      -0.34385125     -0.34311187     -0.34073794     -0.33959462
      -0.33780623     -0.33619044     -0.33470912     -0.33154440
      -0.33090762     -0.33004972     -0.32872895     -0.32523146
      -0.32477200     -0.32393800     -0.32195649     -0.32042916
      -0.31892504     -0.31607140     -0.31541778     -0.31461621
      -0.31234794     -0.31175245     -0.31056692     -0.30782486
      -0.30615513     -0.30502630     -0.30235259     -0.29944814
      -0.29735382     -0.29657003     -0.29474112     -0.29164116
      -0.28993898     -0.28846607     -0.28650584     -0.28371406
      -0.28153980     -0.28029552     -0.27879010     -0.27821398
      -0.27725784     -0.27317829     -0.27296390     -0.27182364
      -0.27139159     -0.26996359     -0.26868686     -0.26794081
      -0.26712795     -0.26674105     -0.26588246     -0.26461368
      -0.26314055     -0.26247058     -0.26229734     -0.26145299
      -0.26009149     -0.25935049     -0.25812424     -0.25759216
      -0.25738512     -0.25685839     -0.25617195     -0.25556158
      -0.25519754     -0.25482894     -0.25403286     -0.25373709
      -0.25341711     -0.25294131     -0.25184319     -0.25158802
      -0.25072504     -0.25009601     -0.24989565     -0.24747289
      -0.24703224     -0.24606657     -0.24507116     -0.24428560
      -0.24367650     -0.24273917     -0.24229302     -0.24165200
      -0.24088661     -0.23966351     -0.23860179     -0.23773494
      -0.23705819     -0.23688663     -0.23622891     -0.23386285
      -0.23308283     -0.23060774     -0.22885919     -0.22797348
      -0.22388300     -0.22226153     -0.21857128     -0.21140460
      -0.20763001     -0.13207036     -0.03239787     -0.02824257
 Fermi Energy [eV] :   -0.768519
  
  Lowest Eigenvalues of the unoccupied subspace spin            1
 -----------------------------------------------------
  Reached convergence in           47  iterations 
       0.11234774
  
 HOMO - LUMO gap [eV] :    3.825657

 ENERGY| Total FORCE_EVAL ( QS ) energy (a.u.):            -1099.752881875279854


 -------------------------------------------------------------------------------
 -                                                                             -
 -                                DBCSR STATISTICS                             -
 -                                                                             -
 -------------------------------------------------------------------------------
 COUNTER                                    TOTAL       BLAS       SMM       ACC
 flops     1 x     1 x   442                80444     100.0%      0.0%      0.0%
 flops    65 x     1 x    33               102960     100.0%      0.0%      0.0%
 flops    64 x     1 x    33               304128     100.0%      0.0%      0.0%
 flops     1 x     1 x   456               580944     100.0%      0.0%      0.0%
 flops    65 x     1 x    32               698880     100.0%      0.0%      0.0%
 flops    65 x     1 x   442              1379040     100.0%      0.0%      0.0%
 flops   898 x     1 x    33              1422432     100.0%      0.0%      0.0%
 flops    64 x     1 x    32              2326528     100.0%      0.0%      0.0%
 flops    65 x    33 x   442              3792360     100.0%      0.0%      0.0%
 flops   912 x     1 x    33              4333824     100.0%      0.0%      0.0%
 flops    64 x     1 x   442              4526080     100.0%      0.0%      0.0%
 flops    65 x     1 x   456              9959040     100.0%      0.0%      0.0%
 flops   898 x     1 x    32             10574848     100.0%      0.0%      0.0%
 flops    64 x    33 x   442             11202048     100.0%      0.0%      0.0%
 flops   898 x     1 x   442             19051968     100.0%      0.0%      0.0%
 flops    65 x    32 x   442             25742080     100.0%      0.0%      0.0%
 flops    65 x    33 x   456             27387360     100.0%      0.0%      0.0%
 flops   912 x     1 x    32             32219136     100.0%      0.0%      0.0%
 flops    32 x    32 x   442             32587776     100.0%      0.0%      0.0%
 flops    64 x     1 x   456             32686080     100.0%      0.0%      0.0%
 flops   898 x    33 x   442             52392912     100.0%      0.0%      0.0%
 flops   912 x     1 x   442             58046976     100.0%      0.0%      0.0%
 flops    64 x    33 x   456             80898048     100.0%      0.0%      0.0%
 flops   898 x     1 x   456            137587968     100.0%      0.0%      0.0%
 flops   912 x    33 x   442            159629184     100.0%      0.0%      0.0%
 flops    65 x    32 x   456            185902080     100.0%      0.0%      0.0%
 flops    32 x    32 x   456            235339776     100.0%      0.0%      0.0%
 flops    14 x    32 x    32            262176768     100.0%      0.0%      0.0%
 flops    29 x    32 x    32            273678336     100.0%      0.0%      0.0%
 flops     2 x     2 x    32            349569024     100.0%      0.0%      0.0%
 flops   898 x    33 x   456            378366912     100.0%      0.0%      0.0%
 flops   912 x     1 x   456            419198976     100.0%      0.0%      0.0%
 flops    14 x     1 x    14            608802264     100.0%      0.0%      0.0%
 flops    29 x     1 x    14            639091096     100.0%      0.0%      0.0%
 flops    14 x     1 x    29            639091096     100.0%      0.0%      0.0%
 flops    29 x     1 x    29            667626168     100.0%      0.0%      0.0%
 flops     2 x     8 x    32            684515328     100.0%      0.0%      0.0%
 flops     8 x     2 x    32            684859392     100.0%      0.0%      0.0%
 flops     8 x     8 x    32           1107197952     100.0%      0.0%      0.0%
 flops   912 x    33 x   456           1152797184     100.0%      0.0%      0.0%
 flops   898 x    32 x   442           2794288640     100.0%      0.0%      0.0%
 flops    64 x    32 x   442           3262398464     100.0%      0.0%      0.0%
 flops    64 x    32 x    32           4563402752     100.0%      0.0%      0.0%
 flops   912 x    32 x   442           8513556480     100.0%      0.0%      0.0%
 flops   898 x    32 x    32           8592293888     100.0%      0.0%      0.0%
 flops    14 x    14 x    32          18629947392     100.0%      0.0%      0.0%
 flops    29 x    14 x    32          19393626112     100.0%      0.0%      0.0%
 flops    14 x    29 x    32          19402772480     100.0%      0.0%      0.0%
 flops   898 x    32 x   456          20179568640     100.0%      0.0%      0.0%
 flops    29 x    29 x    32          20580575232     100.0%      0.0%      0.0%
 flops    64 x    32 x   456          23560126464     100.0%      0.0%      0.0%
 flops   912 x    32 x    32          26178748416     100.0%      0.0%      0.0%
 flops   912 x    32 x   456          61482516480     100.0%      0.0%      0.0%
 flops    14 x    32 x    14          62662699008     100.0%      0.0%      0.0%
 flops    29 x    32 x    14          65780262912     100.0%      0.0%      0.0%
 flops    14 x    32 x    29          65780262912     100.0%      0.0%      0.0%
 flops    29 x    32 x    29          68717316096     100.0%      0.0%      0.0%
 flops inhomo. stacks                     1032518     100.0%      0.0%      0.0%
 flops total                       509.073120E+09     100.0%      0.0%      0.0%
 flops max/rank                     16.654108E+09     100.0%      0.0%      0.0%
 matmuls inhomo. stacks                       799     100.0%      0.0%      0.0%
 matmuls total                           21283610     100.0%      0.0%      0.0%
 number of processed stacks                174663     100.0%      0.0%      0.0%
 average stack size                                   121.9       0.0       0.0
 marketing flops                   591.926657E+09
 -------------------------------------------------------------------------------
 # multiplications                           1034
 max memory usage/rank             424.161280E+06
 # max total images/rank                        2
 # max 3D layers                                1
 # MPI messages exchanged                  694848
 MPI messages size (bytes):
  total size                       148.142457E+09
  min size                           0.000000E+00
  max size                           3.326976E+06
  average size                     213.201250E+03
 MPI breakdown and total messages size (bytes):
             size <=      128              379400                    33936
       128 < size <=     8192              119448                867760656
      8192 < size <=    32768               45696                825840960
     32768 < size <=   131072               64736               7212424128
    131072 < size <=  4194304               85568             139236849696
   4194304 < size <= 16777216                   0                        0
  16777216 < size                               0                        0
 -------------------------------------------------------------------------------

 *** WARNING in dbcsr/mm/dbcsr_mm.F:268 :: Using a non-square number of ***
 *** MPI ranks might lead to poor performance.                          ***
 *** Used ranks: 32                                                     ***
 *** Suggested: 36 64                                                   ***

 -------------------------------------------------------------------------------
 
 MEMORY| Estimated peak process memory [MiB]                                 405

 -------------------------------------------------------------------------------
 -                                                                             -
 -                         MESSAGE PASSING PERFORMANCE                         -
 -                                                                             -
 -------------------------------------------------------------------------------

 ROUTINE             CALLS      AVE VOLUME [Bytes]
 MP_Group              125
 MP_Bcast             1465                1109288.
 MP_Allreduce         7504                    535.
 MP_Sync               177
 MP_Alltoall          6164                1551636.
 MP_ISendRecv         5394                  74165.
 MP_Wait             91520
 MP_comm_split          65
 MP_ISend            51230                 120560.
 MP_IRecv            51050                 121498.
 MP_Recv                14                 930304.
 MP_Memory           59884
 -------------------------------------------------------------------------------


 -------------------------------------------------------------------------------
 -                                                                             -
 -                           R E F E R E N C E S                               -
 -                                                                             -
 -------------------------------------------------------------------------------
 
 CP2K version 6.1, the CP2K developers group (2018).
 CP2K is freely available from https://www.cp2k.org/ .

 Schuett, Ole; Messmer, Peter; Hutter, Juerg; VandeVondele, Joost. 
 Electronic Structure Calculations on Graphics Processing Units, John Wiley & Sons, Ltd, 173-190 (2016). 
 GPU-Accelerated Sparse Matrix-Matrix Multiplication for Linear Scaling Density Functional Theory.
 http://dx.doi.org/10.1002/9781118670712.ch8


 Borstnik, U; VandeVondele, J; Weber, V; Hutter, J. 
 PARALLEL COMPUTING, 40 (5-6), 47-58 (2014). 
 Sparse matrix multiplication: The distributed block-compressed sparse
 row library.
 http://dx.doi.org/10.1016/j.parco.2014.03.012


 Hutter, J; Iannuzzi, M; Schiffmann, F; VandeVondele, J. 
 WILEY INTERDISCIPLINARY REVIEWS-COMPUTATIONAL MOLECULAR SCIENCE, 4 (1), 15-25 (2014). 
 CP2K: atomistic simulations of condensed matter systems.
 http://dx.doi.org/10.1002/wcms.1159


 Sabatini, R; Gorni, T; de Gironcoli, S. 
 Phys. Rev. B, 87 (4), 041108(R) (2013). 
 Nonlocal van der Waals density functional made simple and efficient.
 http://dx.doi.org/10.1103/PhysRevB.87.041108


 Guidon, M; Hutter, J; VandeVondele, J. 
 JOURNAL OF CHEMICAL THEORY AND COMPUTATION, 6 (8), 2348-2364 (2010). 
 Auxiliary Density Matrix Methods for Hartree-Fock Exchange Calculations.
 http://dx.doi.org/10.1021/ct1002225


 Guidon, M; Hutter, J; VandeVondele, J. 
 JOURNAL OF CHEMICAL THEORY AND COMPUTATION, 5 (11), 3010-3021 (2009). 
 Robust Periodic Hartree-Fock Exchange for Large-Scale Simulations Using
 Gaussian Basis Sets.
 http://dx.doi.org/10.1021/ct900494g


 Roman-Perez, G; Soler, JM. 
 Phys. Rev. Lett., 103 (9), 096102 (2009). 
 Efficient Implementation of a van der Waals Density Functional:
 Application to Double-Wall Carbon Nanotubes.
 http://dx.doi.org/10.1103/PhysRevLett.103.096102


 Guidon, M; Schiffmann, F; Hutter, J; VandeVondele, J. 
 JOURNAL OF CHEMICAL PHYSICS, 128 (21), 214104 (2008). 
 Ab initio molecular dynamics using hybrid density functionals.
 http://dx.doi.org/10.1063/1.2931945


 VandeVondele, J; Hutter, J. 
 JOURNAL OF CHEMICAL PHYSICS, 127 (11), 114105 (2007). 
 Gaussian basis sets for accurate calculations on molecular systems in
 gas and condensed phases.
 http://dx.doi.org/10.1063/1.2770708


 Krack, M. 
 THEORETICAL CHEMISTRY ACCOUNTS, 114 (1-3), 145-152 (2005). 
 Pseudopotentials for H to Kr optimized for gradient-corrected
 exchange-correlation functionals.
 http://dx.doi.org/10.1007/s00214-005-0655-y


 VandeVondele, J; Krack, M; Mohamed, F; Parrinello, M; Chassaing, T;
 Hutter, J. COMPUTER PHYSICS COMMUNICATIONS, 167 (2), 103-128 (2005). 
 QUICKSTEP: Fast and accurate density functional calculations using a
 mixed Gaussian and plane waves approach.
 http://dx.doi.org/10.1016/j.cpc.2004.12.014


 Frigo, M; Johnson, SG. 
 PROCEEDINGS OF THE IEEE, 93 (2), 216-231 (2005). 
 The design and implementation of FFTW3.
 http://dx.doi.org/10.1109/JPROC.2004.840301


 Heyd, J; Scuseria, GE. 
 JOURNAL OF CHEMICAL PHYSICS, 120 (16), 7274-7280 (2004). 
 Assessment and validation of a screened Coulomb hybrid density
 functional.
 http://dx.doi.org/10.1063/1.1668634


 VandeVondele, J; Hutter, J. 
 JOURNAL OF CHEMICAL PHYSICS, 118 (10), 4365-4369 (2003). 
 An efficient orbital transformation method for electronic structure
 calculations.
 http://dx.doi.org/10.1063/1.1543154


 Hartwigsen, C; Goedecker, S; Hutter, J. 
 PHYSICAL REVIEW B, 58 (7), 3641-3662 (1998). 
 Relativistic separable dual-space Gaussian pseudopotentials from H to Rn.
 http://dx.doi.org/10.1103/PhysRevB.58.3641


 Lippert, G; Hutter, J; Parrinello, M. 
 MOLECULAR PHYSICS, 92 (3), 477-487 (1997). 
 A hybrid Gaussian and plane wave density functional scheme.
 http://dx.doi.org/10.1080/002689797170220


 Perdew, JP; Burke, K; Ernzerhof, M. 
 PHYSICAL REVIEW LETTERS, 77 (18), 3865-3868 (1996). 
 Generalized gradient approximation made simple.
 http://dx.doi.org/10.1103/PhysRevLett.77.3865


 Goedecker, S; Teter, M; Hutter, J. 
 PHYSICAL REVIEW B, 54 (3), 1703-1710 (1996). 
 Separable dual-space Gaussian pseudopotentials.
 http://dx.doi.org/10.1103/PhysRevB.54.1703


 -------------------------------------------------------------------------------
 -                                                                             -
 -                                T I M I N G                                  -
 -                                                                             -
 -------------------------------------------------------------------------------
 SUBROUTINE                       CALLS  ASD         SELF TIME        TOTAL TIME
                                MAXIMUM       AVERAGE  MAXIMUM  AVERAGE  MAXIMUM
 CP2K                                 1  1.0    0.062    0.068  413.002  413.002
 qs_energies                          1  2.0    0.000    0.000  411.925  411.926
 scf_env_do_scf                       1  3.0    0.000    0.000  307.456  307.456
 qs_ks_update_qs_env                 22  5.0    0.000    0.000  244.248  244.250
 rebuild_ks_matrix                   21  6.0    0.000    0.000  244.208  244.210
 qs_ks_build_kohn_sham_matrix        21  7.0    0.003    0.003  244.208  244.210
 scf_env_do_scf_inner_loop           21  4.0    0.001    0.001  236.857  236.865
 hfx_ks_matrix                       21  8.0    0.001    0.001  160.468  160.510
 integrate_four_center               21  9.0    0.073    0.300  160.436  160.479
 dbcsr_multiply_generic            1034  8.6    0.066    0.068  157.733  157.858
 integrate_four_center_main          21 10.0    0.006    0.007  148.750  152.753
 integrate_four_center_bin         1344 11.0  148.744  152.748  148.744  152.748
 scf_post_calculation_gpw             1  3.0    0.000    0.000  103.003  103.004
 make_lumo                            1  4.0    0.000    0.000  102.662  102.662
 ot_eigensolver                       1  5.0    0.001    0.001  102.364  102.365
 multiply_cannon                   1034  9.6    0.181    0.190   83.678   84.026
 mp_deallocate_d                  16945 12.8   78.089   78.365   78.089   78.365
 ot_mini                             68  6.6    0.000    0.000   75.107   75.109
 init_scf_loop                        1  4.0    0.000    0.000   70.589   70.589
 qs_ot_get_derivative                35  7.6    0.000    0.000   67.302   67.313
 dbcsr_destroy                    14673 10.4    0.053    0.056   62.016   62.181
 mp_deallocate_i                  13069 12.8   58.595   59.075   58.595   59.075
 qs_vxc_create                       42  8.0    0.002    0.004   58.535   58.559
 make_m2s                          2068  9.6    0.062    0.067   54.791   55.053
 qs_scf_new_mos                      21  5.0    0.000    0.000   48.938   48.945
 qs_scf_loop_do_ot                   21  6.0    0.000    0.000   48.937   48.945
 xc_rho_set_and_dset_create          42 10.0    0.127    0.140   43.445   47.022
 dbcsr_data_release               71630 12.2    0.230    0.262   46.069   46.280
 ot_scf_mini                         21  7.0    0.001    0.001   45.120   45.133
 xc_functional_eval                 105 11.0    0.001    0.001   35.039   38.591
 make_images                       2068 10.6    0.103    0.110   34.061   34.355
 xc_vxc_pw_create                    22  9.0    0.106    0.111   32.164   32.164
 qs_ot_get_p                         71  6.6    0.001    0.001   31.472   31.595
 setup_buffer_matrices             2068 10.6    0.041    0.043   29.985   30.057
 dbcsr_create_new                 15230 11.2    0.083    0.086   28.644   28.908
 qs_ot_get_derivative_diag           20  8.1    0.001    0.001   28.881   28.887
 dbcsr_make_index_exist           15230 12.2    0.042    0.044   28.068   28.347
 pw_transfer                       1478 10.0    0.085    0.097   24.510   27.568
 fft_wrap_pw1pw2                   1341 11.1    0.010    0.012   24.170   27.229
 fft_wrap_pw1pw2_400                345 12.2    1.819    2.138   20.148   23.110
 qs_ot_get_derivative_taylor         15  9.3    0.001    0.001   22.309   22.314
 fft3d_ps                          1341 13.1    9.422    9.721   18.287   21.477
 xpbe_hole_t_c_lr_lda_eval           42 12.0   19.146   20.795   19.146   20.795
 dbcsr_make_images_dense           1782 10.9    0.031    0.035   20.637   20.694
 calculate_rho_elec                  43  7.5    9.555    9.703   20.283   20.293
 qs_ot_get_orbitals                  70  6.6    0.000    0.000   19.862   19.875
 xc_exc_calc                         20  9.0    0.036    0.038   19.835   19.835
 dbcsr_special_finalize            3102 11.6    0.012    0.013   15.325   15.740
 xwpbe_lda_eval                      42 12.0   13.162   15.466   13.162   15.466
 buffer_matrices_ensure_size       2068 10.6    0.310    0.327   13.914   14.143
 quick_finalize                    3036 12.6    0.015    0.017   13.213   13.587
 qs_rho_update_rho                   22  5.0    0.000    0.000   13.048   13.055
 dbcsr_switch_data_area            8143 12.6    0.010    0.011   11.972   12.118
 admm_mo_calc_rho_aux                21  8.0    0.000    0.000   12.034   12.066
 qs_ot_p2m_diag                      42  7.1    0.001    0.002   11.629   11.637
 mp_waitall_1                     88638 12.0   10.619   10.938   10.619   10.938
 mp_alltoall_z22v                  1341 15.1    6.365   10.222    6.365   10.222
 density_rs2pw                       43  8.5    0.003    0.003    9.660    9.811
 sum_up_and_integrate                11  8.0    0.076    0.080    9.097    9.102
 integrate_v_rspace                  22  9.0    4.506    4.588    9.019    9.033
 yz_to_x                            725 13.9    0.860    0.978    5.202    8.771
 apply_preconditioner_dbcsr          38  8.6    0.000    0.000    8.342    8.380
 apply_single                        38  9.6    0.000    0.000    8.342    8.380
 -------------------------------------------------------------------------------

 The number of warnings for this run is : 2
 
 -------------------------------------------------------------------------------
  **** **** ******  **  PROGRAM ENDED AT                 2024-03-15 23:49:12.333
 ***** ** ***  *** **   PROGRAM RAN ON                                      tc13
 **    ****   ******    PROGRAM RAN BY                                  fambrosi
 ***** **    ** ** **   PROGRAM PROCESS ID                                  5302
  **** **  *******  **  PROGRAM STOPPED IN          /scratch/fambrosi.55104.tccw
