 vasp.5.4.4.18Apr17-6-g9f103f2a35 (build Feb 21 2024 08:01:25) gamma-only       
  
 executed on                Lucia date 2024.06.22  22:45:10
 running on   64 total cores
 distrk:  each k-point on   64 cores,    1 groups
 distr:  one band on NCORES_PER_BAND=   1 cores,   64 groups


--------------------------------------------------------------------------------------------------------


 INCAR:
 POTCAR:    PAW_PBE O_h_GW 22May2013              
 POTCAR:    PAW_PBE H_h_GW 21Apr2008              

 ----------------------------------------------------------------------------- 
|                                                                             |
|           W    W    AA    RRRRR   N    N  II  N    N   GGGG   !!!           |
|           W    W   A  A   R    R  NN   N  II  NN   N  G    G  !!!           |
|           W    W  A    A  R    R  N N  N  II  N N  N  G       !!!           |
|           W WW W  AAAAAA  RRRRR   N  N N  II  N  N N  G  GGG   !            |
|           WW  WW  A    A  R   R   N   NN  II  N   NN  G    G                |
|           W    W  A    A  R    R  N    N  II  N    N   GGGG   !!!           |
|                                                                             |
|      For optimal performance we recommend to set                            |
|        NCORE= 4 - approx SQRT( number of cores)                             |
|      NCORE specifies how many cores store one orbital (NPAR=cpu/NCORE).     |
|      This setting can  greatly improve the performance of VASP for DFT.     |
|      The default,   NCORE=1            might be grossly inefficient         |
|      on modern multi-core architectures or massively parallel machines.     |
|      Do your own testing !!!!                                               |
|      Unfortunately you need to use the default for GW and RPA calculations. |
|      (for HF NCORE is supported but not extensively tested yet)             |
|                                                                             |
 ----------------------------------------------------------------------------- 

 POTCAR:    PAW_PBE O_h_GW 22May2013              
   VRHFIN =O: s2p4                                                              
   LEXCH  = PE                                                                  
   EATOM  =   432.3788 eV,   31.7789 Ry                                         
                                                                                
   TITEL  = PAW_PBE O_h_GW 22May2013                                            
   LULTRA =        F    use ultrasoft PP ?                                      
   IUNSCR =        1    unscreen: 0-lin 1-nonlin 2-no                           
   RPACOR =    0.800    partial core radius                                     
   POMASS =   16.000; ZVAL   =    6.000    mass and valenz                      
   RCORE  =    1.100    outmost cutoff radius                                   
   RWIGS  =    1.200; RWIGS  =    0.635    wigner-seitz radius (au A)           
   ENMAX  =  765.519; ENMIN  =  574.139 eV                                      
   RCLOC  =    0.907    cutoff for local pot                                    
   LCOR   =        T    correct aug charges                                     
   LPAW   =        T    paw PP                                                  
   EAUG   = 1673.112                                                            
   DEXC   =    0.000                                                            
   RMAX   =    1.128    core radius for proj-oper                               
   RAUG   =    1.300    factor for augmentation sphere                          
   RDEP   =    1.125    radius for radial grids                                 
   RDEPT  =    1.000    core radius for aug-charge                              
                                                                                
   Atomic configuration                                                         
    5 entries                                                                   
     n  l   j            E        occ.                                          
     1  0  0.50      -514.6923   2.0000                                         
     2  0  0.50       -23.9615   2.0000                                         
     2  1  0.50        -9.0305   4.0000                                         
     3  2  1.50        -9.5241   0.0000                                         
     4  3  2.50        -9.5241   0.0000                                         
   Description                                                                  
     l       E           TYP  RCUT    TYP  RCUT                                 
     0    -23.9615316     23  1.000                                             
     0     40.8174780     23  1.000                                             
     0    544.2330400     23  1.000                                             
     1     -9.0304908     23  1.100                                             
     1    163.2699120     23  1.100                                             
     1    435.3864320     23  1.100                                             
     2     81.6349560     23  1.100                                             
     2    163.2699120     23  1.100                                             
  local pseudopotential read in
  partial core-charges read in
  partial kinetic energy density read in
  kinetic energy density of atom read in
  atomic valenz-charges read in
  non local Contribution for L=           0  read in
    real space projection operators read in
  non local Contribution for L=           0  read in
    real space projection operators read in
  non local Contribution for L=           0  read in
    real space projection operators read in
  non local Contribution for L=           1  read in
    real space projection operators read in
  non local Contribution for L=           1  read in
    real space projection operators read in
  non local Contribution for L=           1  read in
    real space projection operators read in
  non local Contribution for L=           2  read in
    real space projection operators read in
  non local Contribution for L=           2  read in
    real space projection operators read in
    PAW grid and wavefunctions read in
 
   number of l-projection  operators is LMAX  =           8
   number of lm-projection operators is LMMAX =          22
 
 POTCAR:    PAW_PBE H_h_GW 21Apr2008              
   VRHFIN =H: ultrasoft test                                                    
   LEXCH  = PE                                                                  
   EATOM  =    12.4884 eV,    0.9179 Ry                                         
                                                                                
   TITEL  = PAW_PBE H_h_GW 21Apr2008                                            
   LULTRA =        F    use ultrasoft PP ?                                      
   IUNSCR =        0    unscreen: 0-lin 1-nonlin 2-no                           
   RPACOR =    0.000    partial core radius                                     
   POMASS =    1.000; ZVAL   =    1.000    mass and valenz                      
   RCORE  =    0.800    outmost cutoff radius                                   
   RWIGS  =    1.100; RWIGS  =    0.582    wigner-seitz radius (au A)           
   ENMAX  =  700.000; ENMIN  =  350.000 eV                                      
   RCLOC  =    0.701    cutoff for local pot                                    
   LCOR   =        T    correct aug charges                                     
   LPAW   =        T    paw PP                                                  
   EAUG   = 1000.000                                                            
   RMAX   =    0.819    core radius for proj-oper                               
   RAUG   =    1.000    factor for augmentation sphere                          
   RDEP   =    0.817    radius for radial grids                                 
   RDEPT  =    1.000    core radius for aug-charge                              
                                                                                
   Atomic configuration                                                         
    3 entries                                                                   
     n  l   j            E        occ.                                          
     1  0  0.50        -6.4927   1.0000                                         
     2  1  0.50        -3.4015   0.0000                                         
     3  2  1.50        13.6058   0.0000                                         
   Description                                                                  
     l       E           TYP  RCUT    TYP  RCUT                                 
     0     -6.4927495     23  0.800                                             
     0      6.8029130     23  0.800                                             
     1     -4.0817478     23  0.800                                             
     1    108.8466080     23  0.800                                             
     2     81.6349560     23  0.800                                             
  local pseudopotential read in
  kinetic energy density of atom read in
  atomic valenz-charges read in
  non local Contribution for L=           0  read in
    real space projection operators read in
  non local Contribution for L=           0  read in
    real space projection operators read in
  non local Contribution for L=           1  read in
    real space projection operators read in
  non local Contribution for L=           1  read in
    real space projection operators read in
  non local Contribution for L=           2  read in
    real space projection operators read in
    PAW grid and wavefunctions read in
 
   number of l-projection  operators is LMAX  =           5
   number of lm-projection operators is LMMAX =          13
 
 Optimization of the real space projectors (new method)

 maximal supplied QI-value         = 34.20
 optimisation between [QCUT,QGAM] = [ 14.37, 28.73] = [ 57.79,231.16] Ry 
 Optimized for a Real-space Cutoff    1.13 Angstroem

   l    n(q)    QCUT    max X(q) W(low)/X(q) W(high)/X(q)  e(spline) 
   0     10    14.366     6.557    0.11E-03    0.51E-04    0.13E-05
   0     10    14.366     3.134    0.12E-03    0.59E-04    0.17E-05
   0     10    14.366     0.493    0.56E-04    0.32E-05    0.10E-05
   1      9    14.366     1.858    0.88E-04    0.32E-04    0.65E-06
   1      9    14.366     1.158    0.19E-04    0.83E-04    0.82E-06
   1      9    14.366     0.989    0.18E-03    0.11E-03    0.11E-05
   2      9    14.366     3.124    0.15E-03    0.25E-03    0.23E-06
   2      9    14.366     2.755    0.12E-03    0.21E-03    0.23E-06
 Optimization of the real space projectors (new method)

 maximal supplied QI-value         = 47.24
 optimisation between [QCUT,QGAM] = [ 14.17, 28.82] = [ 56.25,232.56] Ry 
 Optimized for a Real-space Cutoff    1.10 Angstroem

   l    n(q)    QCUT    max X(q) W(low)/X(q) W(high)/X(q)  e(spline) 
   0      9    14.173    34.671    0.13E-03    0.13E-03    0.45E-06
   0      9    14.173    17.046    0.13E-03    0.12E-03    0.45E-06
   1      9    14.173     4.173    0.13E-04    0.12E-03    0.81E-06
   1      9    14.173     3.793    0.72E-05    0.12E-03    0.75E-06
   2      9    14.173     2.344    0.15E-03    0.59E-03    0.69E-06
  PAW_PBE O_h_GW 22May2013              :
 energy of atom  1       EATOM= -432.3788
 kinetic energy error for atom=    0.0522 (will be added to EATOM!!)
  PAW_PBE H_h_GW 21Apr2008              :
 energy of atom  2       EATOM=  -12.4884
 kinetic energy error for atom=    0.0035 (will be added to EATOM!!)
 
 
 POSCAR:  O  H                                   
  positions in cartesian coordinates
  No initial velocities read in
 exchange correlation table for  LEXCH =        8
   RHO(1)=    0.500       N(1)  =     2000
   RHO(2)=  100.500       N(2)  =     4000
 


--------------------------------------------------------------------------------------------------------


 ion  position               nearest neighbor table
   1  0.323  0.481  0.436-  34 0.96  33 1.02
   2  0.642  0.770  0.621-  36 0.96  35 0.96
   3  0.356  0.363  0.894-  38 0.98  37 0.99
   4  0.961  0.116  0.992-  39 0.96  40 1.01
   5  0.017  0.515  0.789-  41 0.94  42 0.99
   6  0.162  0.731  0.828-  44 0.99  43 1.00
   7  0.652  0.259  0.842-  46 0.98  45 1.00
   8  0.581  0.032  0.498-  81 0.96  47 0.99
   9  0.136  0.398  0.272-  48 0.94  49 1.00
  10  0.404  0.067  0.854-  50 0.95  51 1.00
  11  0.244  0.665  0.120-  53 0.95  52 1.00
  12  0.325  0.012  0.589-  55 0.98  54 0.98
  13  0.670  0.466  0.653-  56 0.95  57 0.99
  14  0.850  0.358  0.968-  58 0.96  59 0.98
  15  0.568  0.393  0.399-  61 0.96  60 1.01
  16  0.308  0.934  0.190-  63 0.94  62 0.96
  17  0.225  0.172  0.052-  65 1.01  64 1.02
  18  0.668  0.169  0.284-  66 0.95  67 0.98
  19  0.099  0.142  0.555-  69 0.98  68 1.03
  20  0.745  0.962  0.076-  71 0.98  70 1.00
  21  0.011  0.954  0.757-  73 0.97  72 0.98
  22  0.065  0.908  0.358-  74 0.95  75 1.00
  23  0.373  0.727  0.602-  76 0.98  77 0.99
  24  0.494  0.574  0.053-  79 0.97  78 1.02
  25  0.711  0.995  0.796-  92 1.00  80 1.06
  26  0.220  0.359  0.658-  83 0.99  82 1.00
  27  0.579  0.818  0.255-  84 0.97  85 0.99
  28  0.732  0.502  0.176-  87 0.95  86 1.02
  29  0.914  0.701  0.596-  88 0.93  89 0.96
  30  0.953  0.612  0.307-  91 0.94  90 1.00
  31  0.449  0.815  0.871-  93 0.98
  32  0.963  0.165  0.287-  95 0.93  94 1.01
  33  0.250  0.454  0.369-   1 1.02
  34  0.326  0.578  0.454-   1 0.96
  35  0.726  0.719  0.618-   2 0.96
  36  0.654  0.850  0.675-   2 0.96
  37  0.293  0.310  0.952-   3 0.99
  38  0.414  0.427  0.943-   3 0.98
  39  0.927  0.073  0.074-   4 0.96
  40  0.919  0.210  0.985-   4 1.01
  41  0.076  0.456  0.743-   5 0.94
  42  0.067  0.593  0.828-   5 0.99
  43  0.118  0.819  0.801-   6 1.00
  44  0.227  0.754  0.901-   6 0.99
  45  0.554  0.247  0.867-   7 1.00
  46  0.679  0.182  0.785-   7 0.98
  47  0.483  0.038  0.520-   8 0.99
  48  0.098  0.312  0.252-   9 0.94
  49  0.055  0.458  0.287-   9 1.00
  50  0.366  0.079  0.766-  10 0.95
  51  0.339  0.106  0.922-  10 1.00
  52  0.329  0.611  0.111-  11 1.00
  53  0.191  0.591  0.156-  11 0.95
  54  0.316  0.913  0.590-  12 0.98
  55  0.234  0.051  0.579-  12 0.98
  56  0.635  0.549  0.689-  13 0.95
  57  0.678  0.405  0.734-  13 0.99
  58  0.768  0.337  0.918-  14 0.96
  59  0.913  0.408  0.908-  14 0.98
  60  0.467  0.411  0.396-  15 1.01
  61  0.598  0.413  0.490-  15 0.96
  62  0.305  0.837  0.189-  16 0.96
  63  0.404  0.948  0.192-  16 0.94
  64  0.241  0.087  0.109-  17 1.02
  65  0.124  0.166  0.032-  17 1.01
  66  0.632  0.104  0.345-  18 0.95
  67  0.647  0.254  0.334-  18 0.98
  68  0.144  0.234  0.580-  19 1.03
  69  0.041  0.150  0.474-  19 0.98
  70  0.706  0.052  0.102-  20 1.00
  71  0.705  0.910  0.151-  20 0.98
  72  0.051  0.020  0.693-  21 0.98
  73  0.021  0.011  0.837-  21 0.97
  74  0.032  0.833  0.307-  22 0.95
  75  0.166  0.918  0.345-  22 1.00
  76  0.329  0.716  0.690-  23 0.98
  77  0.472  0.727  0.622-  23 0.99
  78  0.582  0.556  0.104-  24 1.02
  79  0.510  0.656  0.001-  24 0.97
  80  0.817  0.979  0.780-  25 1.06
  81  0.636  0.010  0.575-   8 0.96
  82  0.270  0.411  0.586-  26 1.00
  83  0.273  0.377  0.742-  26 0.99
  84  0.581  0.725  0.289-  27 0.97
  85  0.575  0.867  0.343-  27 0.99
  86  0.767  0.439  0.102-  28 1.02
  87  0.686  0.449  0.244-  28 0.95
  88  0.965  0.777  0.623-  29 0.93
  89  0.928  0.627  0.658-  29 0.96
  90  0.879  0.580  0.244-  30 1.00
  91  0.912  0.603  0.393-  30 0.94
  92  0.709  0.976  0.896-  25 1.00
  93  0.440  0.915  0.873-  31 0.98
  94  0.862  0.173  0.303-  32 1.01
  95  0.968  0.071  0.299-  32 0.93
 
  LATTYP: Found a simple cubic cell.
 ALAT       =     9.8149143129
  
  Lattice vectors:
  
 A1 = (   9.8149143129,   0.0000000000,   0.0000000000)
 A2 = (   0.0000000000,   9.8149143129,   0.0000000000)
 A3 = (   0.0000000000,   0.0000000000,   9.8149143129)


Analysis of symmetry for initial positions (statically):
=====================================================================
 Subroutine PRICEL returns:
 Original cell was already a primitive cell.
 

 Routine SETGRP: Setting up the symmetry group for a 
 simple cubic supercell.


 Subroutine GETGRP returns: Found  1 space group operations
 (whereof  1 operations were pure point group operations)
 out of a pool of 48 trial point group operations.


The static configuration has the point symmetry C_1 .


Analysis of symmetry for dynamics (positions and initial velocities):
=====================================================================
 Subroutine PRICEL returns:
 Original cell was already a primitive cell.
 

 Routine SETGRP: Setting up the symmetry group for a 
 simple cubic supercell.


 Subroutine GETGRP returns: Found  1 space group operations
 (whereof  1 operations were pure point group operations)
 out of a pool of 48 trial point group operations.


The dynamic configuration has the point symmetry C_1 .


 Subroutine INISYM returns: Found  1 space group operations
 (whereof  1 operations are pure point group operations),
 and found     1 'primitive' translations

 
 
 KPOINTS: Gamma-point only                        

Automatic generation of k-mesh.
Space group operators:
 irot       det(A)        alpha          n_x          n_y          n_z        tau_x        tau_y        tau_z
    1     1.000000     0.000000     1.000000     0.000000     0.000000     0.000000     0.000000     0.000000
 
 Subroutine IBZKPT returns following result:
 ===========================================
 
 Found      1 irreducible k-points:
 
 Following reciprocal coordinates:
            Coordinates               Weight
  0.000000  0.000000  0.000000      1.000000
 
 Following cartesian coordinates:
            Coordinates               Weight
  0.000000  0.000000  0.000000      1.000000
 
 
 Subroutine IBZKPT_HF returns following result:
 ==============================================
 
 Found      1 k-points in 1st BZ
 the following      1 k-points will be used (e.g. in the exchange kernel)
 Following reciprocal coordinates:   # in IRBZ
  0.000000  0.000000  0.000000    1.00000000   1 t-inv F


--------------------------------------------------------------------------------------------------------




 Dimension of arrays:
   k-points           NKPTS =      1   k-points in BZ     NKDIM =      1   number of bands    NBANDS=   3072
   number of dos      NEDOS =   2001   number of ions     NIONS =     95
   non local maximal  LDIM  =      8   non local SUM 2l+1 LMDIM =     22
   total plane-waves  NPLWV = 884736
   max r-space proj   IRMAX =   5730   max aug-charges    IRDMAX=   5831
   dimension x,y,z NGX =    96 NGY =   96 NGZ =   96
   dimension x,y,z NGXF=   192 NGYF=  192 NGZF=  192
   support grid    NGXF=   192 NGYF=  192 NGZF=  192
   ions per type =              32  63
   NGX,Y,Z   is equivalent  to a cutoff of  16.26, 16.26, 16.26 a.u.
   NGXF,Y,Z  is equivalent  to a cutoff of  32.52, 32.52, 32.52 a.u.

 SYSTEM =  unknown system                          
 POSCAR =   O  H                                   

 Startparameter for this run:
   NWRITE =      2    write-flag & timer
   PREC   = accura    normal or accurate (medium, high low for compatibility)
   ISTART =      1    job   : 0-new  1-cont  2-samecut
   ICHARG =      0    charge: 1-file 2-atom 10-const
   ISPIN  =      1    spin polarized calculation?
   LNONCOLLINEAR =      F non collinear calculations
   LSORBIT =      F    spin-orbit coupling
   INIWAV =      1    electr: 0-lowe 1-rand  2-diag
   LASPH  =      T    aspherical Exc in radial PAW
   METAGGA=      F    non-selfconsistent MetaGGA calc.

 Electronic Relaxation 1
   ENCUT  =  800.0 eV  58.80 Ry    7.67 a.u.  22.64 22.64 22.64*2*pi/ulx,y,z
   ENINI  =  800.0     initial cutoff
   ENAUG  = 1673.1 eV  augmentation charge cutoff
   NELM   =      6;   NELMIN=  2; NELMDL=  0     # of ELM steps 
   EDIFF  = 0.1E-03   stopping-criterion for ELM
   LREAL  =      T    real-space projection
   NLSPLINE    = F    spline interpolate recip. space projectors
   LCOMPAT=      F    compatible to vasp.4.4
   GGA_COMPAT  = T    GGA compatible to vasp.4.4-vasp.4.6
   LMAXPAW     = -100 max onsite density
   LMAXMIX     =    2 max onsite mixed and CHGCAR
   VOSKOWN=      0    Vosko Wilk Nusair interpolation
   ROPT   =   -0.00025  -0.00025
 Ionic relaxation
   EDIFFG = 0.1E-02   stopping-criterion for IOM
   NSW    =      0    number of steps for IOM
   NBLOCK =      1;   KBLOCK =      1    inner block; outer block 
   IBRION =     -1    ionic relax: 0-MD 1-quasi-New 2-CG
   NFREE  =      0    steps in history (QN), initial steepest desc. (CG)
   ISIF   =      0    stress and relaxation
   IWAVPR =     10    prediction:  0-non 1-charg 2-wave 3-comb
   ISYM   =      3    0-nonsym 1-usesym 2-fastsym
   LCORR  =      T    Harris-Foulkes like correction to forces

   POTIM  = 0.5000    time-step for ionic-motion
   TEIN   =    0.0    initial temperature
   TEBEG  =    0.0;   TEEND  =   0.0 temperature during run
   SMASS  =  -3.00    Nose mass-parameter (am)
   estimated Nose-frequenzy (Omega)   =  0.10E-29 period in steps =****** mass=  -0.220E-26a.u.
   SCALEE = 1.0000    scale energy and forces
   NPACO  =    256;   APACO  = 16.0  distance and # of slots for P.C.
   PSTRESS=    0.0 pullay stress

  Mass of Ions in am
   POMASS =  16.00  1.00
  Ionic Valenz
   ZVAL   =   6.00  1.00
  Atomic Wigner-Seitz radii
   RWIGS  =  -1.00 -1.00
  virtual crystal weights 
   VCA    =   1.00  1.00
   NELECT =     256.0000    total number of electrons
   NUPDOWN=      -1.0000    fix difference up-down

 DOS related values:
   EMIN   =  10.00;   EMAX   =-10.00  energy-range for DOS
   EFERMI =   0.00
   ISMEAR =     0;   SIGMA  =   0.20  broadening in eV -4-tet -1-fermi 0-gaus

 Electronic relaxation 2 (details)
   IALGO  =     38    algorithm
   LDIAG  =      T    sub-space diagonalisation (order eigenvalues)
   LSUBROT=      F    optimize rotation matrix (better conditioning)
   TURBO    =      0    0=normal 1=particle mesh
   IRESTART =      0    0=no restart 2=restart with 2 vectors
   NREBOOT  =      0    no. of reboots
   NMIN     =      0    reboot dimension
   EREF     =   0.00    reference energy to select bands
   IMIX   =      1    mixing-type and parameters
     AMIX     =   0.30;   BMIX     =  0.00
     AMIX_MAG =   1.20;   BMIX_MAG =  0.00
     AMIN     =   0.10
     WC   =   100.;   INIMIX=   1;  MIXPRE=   1;  MAXMIX= -45

 Intra band minimization:
   WEIMIN = 0.0000     energy-eigenvalue tresh-hold
   EBREAK =  0.81E-08  absolut break condition
   DEPER  =   0.30     relativ break condition  

   TIME   =   0.40     timestep for ELM

  volume/ion in A,a.u.               =       9.95        67.16
  Fermi-wavevector in a.u.,A,eV,Ry     =   1.059095  2.001400 15.261417  1.121683
  Thomas-Fermi vector in A             =   2.194428
 
 Write flags
   LWAVE        =      T    write WAVECAR
   LDOWNSAMPLE  =      F    k-point downsampling of WAVECAR
   LCHARG       =      F    write CHGCAR
   LVTOT        =      F    write LOCPOT, total local potential
   LVHAR        =      F    write LOCPOT, Hartree potential only
   LELF         =      F    write electronic localiz. function (ELF)
   LORBIT       =      0    0 simple, 1 ext, 2 COOP (PROOUT), +10 PAW based schemes


 Dipole corrections
   LMONO  =      F    monopole corrections only (constant potential shift)
   LDIPOL =      F    correct potential (dipole corrections)
   IDIPOL =      0    1-x, 2-y, 3-z, 4-all directions 
   EPSILON=  1.0000000 bulk dielectric constant

 Exchange correlation treatment:
   GGA     =    --    GGA type
   LEXCH   =     8    internal setting for exchange type
   VOSKOWN=      0    Vosko Wilk Nusair interpolation
   EXXOEP  =     0    0=HF, 1=EXX-LHF (local Hartree Fock) 2=EXX OEP
   LHFCALC =     T    Hartree Fock is set to
   LSYMGRAD=     F    symmetrize gradient (conserves proper symmetry)
   PRECFOCK=fast      Normal, Fast or Accurate (Low or Medium for compatibility)
   LRHFCALC=     F    long range Hartree Fock
   LRSCOR  =     F    long range correlation only (use DFT for short range part)
   LTHOMAS =     F    Thomas Fermi screening in HF
   LMODELHF=     F    short range full HF, long range fraction AEXX
   ENCUT4O =  -1.0   cutoff for four orbital integrals eV
   LMAXFOCK=     4    L truncation for augmentation on plane wave grid
   LMAXFOCKAE=   4    L truncation for all-electron charge restoration on plane wave grid
   NMAXFOCKAE=   1    number of basis functions for all-electron charge restoration
   LFOCKAEDFT=     F  apply the AE augmentation even for DFT
   NKREDX  =     1    reduce k-point grid by
   NKREDY  =     1    reduce k-point grid by
   NKREDZ  =     1    reduce k-point grid by
   SHIFTRED=     F    shift reduced grid of Gamma
   HFKIDENT=     F    idential grid for each k-point
   ODDONLY =     F    use only odd q-grid points
   EVENONLY=     F    use only even q-grid points
   HFALPHA =   -1.0000 decay constant for conv. correction
   MCALPHA =    0.0000 extent of test-charge in conv. correction in multipole expansion
   AEXX    =    1.0000 exact exchange contribution
   HFSCREEN=    0.0000 screening length (either q_TF or 0.3 A-1)
   HFSCREENC=   0.0000 screening length for correlation (either q_TF or 0.3 A-1)
   HFRCUT  =    0.0000 spherical cutoff for potential kernel
   ALDAX   =    0.0000 LDA exchange part
   AGGAX   =    0.0000 GGA exchange part
   ALDAC   =    0.0000 LDA correlation
   AGGAC   =    0.0000 GGA correlation
   ENCUTFOCK=  -1.0 apply spherical cutoff to Coloumb kernel
   NBANDSGWLOW=     1    first orbital included in HF term
   NBLOCK_FOCK=    64    blocking factor in FOCK_ACC
 Linear response parameters
   LEPSILON=     F    determine dielectric tensor
   LRPA    =     F    only Hartree local field effects (RPA)
   LNABLA  =     F    use nabla operator in PAW spheres
   LVEL    =     F    velocity operator in full k-point grid
   LINTERFAST=   F  fast interpolation
   KINTER  =     0    interpolate to denser k-point grid
   CSHIFT  =0.1000    complex shift for real part using Kramers Kronig
   OMEGAMAX=  -1.0    maximum frequency
   DEG_THRESHOLD= 0.2000000E-02 threshold for treating states as degnerate
   RTIME   =   -0.100 relaxation time in fs
  (WPLASMAI=    0.000 imaginary part of plasma frequency in eV, 0.658/RTIME)
   DFIELD  = 0.0000000 0.0000000 0.0000000 field for delta impulse in time
 
 Orbital magnetization related:
   ORBITALMAG=     F  switch on orbital magnetization
   LCHIMAG   =     F  perturbation theory with respect to B field
   DQ        =  0.001000  dq finite difference perturbation B field
   LLRAUG    =     F  two centre corrections for induced B field

 Response functions by sum over occupied states:
   ALGO    =QPGW       execute GW part
   LFXC    =     T    include DFT xc kernel in TD-HF and W
   LADDER  =     F    particle hole ladder diagrams for BSE/TD-HF and W (Nano-quanta)
   LRPAFORCE=     F   calculate RPA forces
   LHARTREE=     T    include Hartree terms (bubbles-RPA) in BSE/TD-HF
   IBSE    =     0    BSE modus: 0 exact, 1 time-evolution (store matrix), 10 time-evolution (implicit)
   KPOINT  =    -1   0   0   0    k-point index at which BSE equation is solved (and G at which response is eval.)
   LTRIPLET=     F    triplet instead of singlet excitation (BSE only)
   LRSRPA  =     F    range separated RPA (total - short) in ACFDT
   LTCTE   =     T    use test-charge test-electron dielectric function
   LTETE   =     F    use test-electron test-electron dielectric function
   LFXCEPS =     T    determine f_xc=epsilon-1/Xi Sharma and Gross kernel
   LFXHEG  =     F    model exchange using f_x(G,k_F) from free electron gas
   NATURALO=     2    0 natural orbitals, 1 only virtual, 2 only occupied-virtual rotation
   L2ORDER =     F    2nd order terms only
   LMP2LT   =     F    use LT MP2
   LUSEW   =     F    use screened W from WXXXX.tmp files instead of (screened) HF kernel
   ENCUTGW = 300.0    cutoff for response function in eV
   ENCUTGWSOFT = 300.0 soft cutoff for Coulomb kernel in GW response function in eV
   ENCUTLF =  -1.0    cutoff for local field effects
   LMAXMP2 =    -1    maximum L for one center terms
   SCISSOR =   0.0    scissor correction
   NOMEGA  =    60    number of frequencies
   NOMEGAR =    60    number of frequencies along real axis
   NBANDSGW=    -1    number of bands for which selfenergy shift is calculated
   NBANDSGWLOW=     1 lowest band included in GW (to exclude core correlation)
   NBANDSO =    -1    number of bands for electron-hole treatment (occupied)
   NBANDSV =    -1    number of bands for electron-hole treatment (virtual)
   NELM    =     6    number of iterations in solving QP/BSE equation
   NELMHF  =     1    number of iterations in the inner HF iteration
   DIM     =     3    dimensionality of system (0=0D molecules, 3=3D)
   ANTIRES =     1    antiresonant part (0) no TDA (1) w=0 exact (2) accurate
   OMEGAMAX= -30.0    maximum frequency
   OMEGAMIN= -30.000    minimum frequency
   OMEGATL =-200.0    maximum frequency of tail
   OMEGAGRID=     0    grid type (0 default)
   CSHIFT  =-0.100    complex shift used in evaluation of response functions
   SELFENERGY=   F    calculate selfenergy instead of QP shifts
   LSPECTRAL =   T    use spectral functions                   
   LSPECTRALGW=   F   use spectral functions to calculate int dz G(w-z) W(z) (more accurate)
   LSINGLES  =   F   calculate the singles contribution to the correlation energy
   LFERMIGW  =   F   update Fermi-energy in the Greens function

   ODDONLYGW =   F    avoid all even points for polarizability 
   EVENONLYGW=   F    avoid all odd  points for polarizability 
   NKREDLFX  =   1   NKREDLFY  =   1   NKREDLFZ  =   1

   TELESCOPE =   0   use telescope k-point sampling
   TAUPAR    =   1   number of TAU groups used in imaginary time calculation
   OMEGAPAR  =  -1   number of OMEGA groups used in imaginary frequency calculation

 PEAD related settings:
   LPEAD      =     T    switch on PEAD
   IPEAD      =     4    finite difference order for dpsi/dk
   LCALCPOL   =     F    calculate macroscopic polarization
   LCALCEPS   =     F    calculate dielectric tensor
   EFIELD_PEAD=    0.0000    0.0000    0.0000
   SKIP_EDOTP =     F
   LRPA       =     F
   SKIP_SCF   =     F


--------------------------------------------------------------------------------------------------------


 Static calculation
 charge density and potential will be updated during run
 non-spin polarized calculation
 Variant of blocked Davidson
 Davidson routine will perform the subspace rotation
 perform sub-space diagonalisation
    after iterative eigenvector-optimisation
 Kerker-like  mixing scheme
 using additional bands         2944
 real space projection scheme for non local part
 use partial core corrections
 calculate Harris-corrections to forces 
   (improved forces if not selfconsistent)
 use gradient corrections 
 use of overlap-Matrix (Vanderbilt PP)
 Gauss-broadening in eV      SIGMA  =   0.20


--------------------------------------------------------------------------------------------------------


  energy-cutoff  :      800.00
  volume of cell :      945.50
      direct lattice vectors                 reciprocal lattice vectors
     9.814914313  0.000000000  0.000000000     0.101885760  0.000000000  0.000000000
     0.000000000  9.814914313  0.000000000     0.000000000  0.101885760  0.000000000
     0.000000000  0.000000000  9.814914313     0.000000000  0.000000000  0.101885760

  length of vectors
     9.814914313  9.814914313  9.814914313     0.101885760  0.101885760  0.101885760


 
 old parameters found on file WAVECAR:
  energy-cutoff  :      800.00
  volume of cell :      945.50
      direct lattice vectors                 reciprocal lattice vectors
     9.814914313  0.000000000  0.000000000     0.101885760  0.000000000  0.000000000
     0.000000000  9.814914313  0.000000000     0.000000000  0.101885760  0.000000000
     0.000000000  0.000000000  9.814914313     0.000000000  0.000000000  0.101885760

  length of vectors

 
 k-points in units of 2pi/SCALE and weight: Gamma-point only                        
   0.00000000  0.00000000  0.00000000       1.000
 
 k-points in reciprocal lattice and weights: Gamma-point only                        
   0.00000000  0.00000000  0.00000000       1.000
 
 position of ions in fractional coordinates (direct lattice) 
   0.32339793  0.48116673  0.43617807
   0.64183636  0.76953874  0.62116145
   0.35629869  0.36303010  0.89374905
   0.96064369  0.11617113  0.99199640
   0.01674937  0.51507499  0.78890545
   0.16230949  0.73062091  0.82757744
   0.65249797  0.25949141  0.84220495
   0.58116556  0.03230151  0.49772765
   0.13582850  0.39761571  0.27212258
   0.40401087  0.06716583  0.85411257
   0.24358410  0.66451934  0.12032612
   0.32467609  0.01209882  0.58896158
   0.66955505  0.46578709  0.65321675
   0.84985088  0.35841460  0.96759132
   0.56825033  0.39288168  0.39915668
   0.30827890  0.93441742  0.18972704
   0.22522781  0.17199249  0.05178249
   0.66843387  0.16943948  0.28352959
   0.09859309  0.14166002  0.55514024
   0.74474991  0.96204348  0.07626887
   0.01100806  0.95406629  0.75671001
   0.06510323  0.90789241  0.35779113
   0.37327611  0.72676201  0.60168520
   0.49352313  0.57377178  0.05335261
   0.71084034  0.99450776  0.79643062
   0.21986443  0.35886887  0.65776647
   0.57888662  0.81753732  0.25526619
   0.73192963  0.50168870  0.17640234
   0.91412639  0.70108082  0.59625958
   0.95302843  0.61197828  0.30707584
   0.44903884  0.81520815  0.87135120
   0.96343471  0.16490958  0.28690033
   0.24981303  0.45405099  0.36855042
   0.32632716  0.57773619  0.45357222
   0.72600480  0.71917122  0.61827939
   0.65448702  0.84986835  0.67479130
   0.29295791  0.30985584  0.95151642
   0.41411863  0.42742265  0.94322096
   0.92707446  0.07334161  0.07376565
   0.91871544  0.20976838  0.98545057
   0.07609733  0.45590565  0.74292553
   0.06739233  0.59347628  0.82836012
   0.11774963  0.81880965  0.80114360
   0.22712675  0.75433008  0.90061667
   0.55435726  0.24716246  0.86714368
   0.67938763  0.18180959  0.78479718
   0.48330757  0.03811058  0.52028900
   0.09844246  0.31156036  0.25221484
   0.05521561  0.45797852  0.28664027
   0.36638056  0.07944678  0.76579589
   0.33896618  0.10606652  0.92235039
   0.32909227  0.61057203  0.11144107
   0.19122570  0.59092487  0.15622517
   0.31649726  0.91270251  0.59009738
   0.23351645  0.05053990  0.57863894
   0.63462656  0.54901169  0.68929578
   0.67756998  0.40522080  0.73380400
   0.76848992  0.33675550  0.91800138
   0.91325011  0.40781273  0.90795064
   0.46717710  0.41101457  0.39583347
   0.59809915  0.41332899  0.49029792
   0.30523655  0.83656587  0.18911888
   0.40351029  0.94780768  0.19191658
   0.24143067  0.08717582  0.10922737
   0.12439490  0.16569000  0.03221202
   0.63238393  0.10400277  0.34520958
   0.64748538  0.25368854  0.33385156
   0.14360496  0.23358482  0.57991037
   0.04122096  0.14996427  0.47380811
   0.70578329  0.05232642  0.10151231
   0.70468453  0.90986433  0.15118924
   0.05083366  0.02019036  0.69290089
   0.02071262  0.01057370  0.83738761
   0.03212015  0.83295040  0.30675090
   0.16615497  0.91814501  0.34544029
   0.32895092  0.71622450  0.69040649
   0.47187004  0.72749937  0.62244617
   0.58195604  0.55627671  0.10429451
   0.50962104  0.65639920  0.00147942
   0.81667063  0.97864403  0.78026758
   0.63627430  0.01037677  0.57501311
   0.27011241  0.41097741  0.58623875
   0.27307730  0.37676592  0.74158039
   0.58086487  0.72461094  0.28910486
   0.57514196  0.86673864  0.34331303
   0.76663465  0.43865328  0.10150016
   0.68627401  0.44947618  0.24398893
   0.96517389  0.77698627  0.62254030
   0.92779587  0.62686496  0.65831162
   0.87902793  0.58017226  0.24444310
   0.91161338  0.60256534  0.39275962
   0.70948759  0.97606119  0.89623466
   0.43961183  0.91472621  0.87258321
   0.86188689  0.17327043  0.30325990
   0.96784901  0.07105624  0.29906220
 
 position of ions in cartesian coordinates  (Angst):
   3.17412294  4.72261023  4.28105035
   6.29956892  7.55295684  6.09664645
   3.49704114  3.56310936  8.77207039
   9.42863552  1.14020966  9.73635970
   0.16439368  5.05541690  7.74303942
   1.59305374  7.17098164  8.12260169
   6.40421170  2.54688600  8.26616939
   5.70409021  0.31703657  4.88515423
   1.33314513  3.90256417  2.67085985
   3.96533203  0.65922686  8.38304168
   2.39075710  6.52220038  1.18099054
   3.18666803  0.11874893  5.78060742
   6.57162541  4.57166042  6.41126642
   8.34121355  3.51780861  9.49682591
   5.57732826  3.85610006  3.91768857
   3.02573096  9.17122692  1.86215468
   2.21059166  1.68809151  0.50824067
   6.56062119  1.66303394  2.78281866
   0.96768274  1.39038095  5.44865386
   7.30965657  9.44237433  0.74857243
   0.10804321  9.36407886  7.42704392
   0.63898266  8.91088625  3.51168931
   3.66367304  7.13310684  5.90548864
   4.84388726  5.63152085  0.52365132
   6.97683706  9.76100845  7.81689832
   2.15795058  3.52226717  6.45592159
   5.68172257  8.02405870  2.50541582
   7.18382664  4.92403159  1.73137384
   8.97207215  6.88104817  5.85223670
   9.35389235  6.00651439  3.01392309
   4.40727778  8.00119813  8.55223736
   9.45602915  1.61857343  2.81590214
   2.45189350  4.45647152  3.61729075
   3.20287314  5.67043118  4.45177252
   7.12567492  7.05860394  6.06835919
   6.42373402  8.34138499  6.62301875
   2.87535677  3.04120856  9.33905216
   4.06453883  4.19511665  9.25763290
   9.09915641  0.71984161  0.72400351
   9.01711329  2.05885864  9.67211286
   0.74688876  4.47467484  7.29175040
   0.66144994  5.82491886  8.13028358
   1.15570256  8.03654651  7.86315579
   2.22922957  7.40368510  8.83947542
   5.44096897  2.42587837  8.51094089
   6.66813138  1.78444552  7.70271709
   4.74362242  0.37405211  5.10659197
   0.96620432  3.05793826  2.47546705
   0.54193650  4.49501991  2.81334972
   3.59599383  0.77976335  7.51622105
   3.32692404  1.04103382  9.05279006
   3.23001245  5.99271220  1.09378451
   1.87686384  5.79987698  1.53333670
   3.10639345  8.95809689  5.79175522
   2.29194399  0.49604478  5.67929158
   6.22880535  5.38850266  6.76537901
   6.65029127  3.97720739  7.20222343
   7.54266271  3.30522640  9.01010489
   8.96347159  4.00264697  8.91145775
   4.58530325  4.03407278  3.88507157
   5.87029190  4.05678862  4.81223210
   2.99587055  8.21082235  1.85618562
   3.96041889  9.30265114  1.88364478
   2.36962131  0.85562322  1.07205729
   1.22092532  1.62623317  0.31615821
   6.20679404  1.02077823  3.38820244
   6.35501355  2.48993124  3.27672441
   1.40947036  2.29261497  5.69177059
   0.40458023  1.47188646  4.65038602
   6.92720247  0.51357935  0.99633464
   6.91641831  8.93024048  1.48390940
   0.49892798  0.19816666  6.80076285
   0.20329259  0.10377997  8.21888760
   0.31525647  8.17533676  3.01073384
   1.63079677  9.01151459  3.39046687
   3.22862508  7.02968210  6.77628054
   4.63136401  7.14034396  6.10925580
   5.71184871  5.45980820  1.02364165
   5.00188687  6.44250195  0.01452037
   8.01555226  9.60530728  7.65825947
   6.24497773  0.10184709  5.64370443
   2.65113018  4.03370802  5.75388306
   2.68023030  3.69792519  7.27854796
   5.70113890  7.11199426  2.83753939
   5.64496905  8.50696553  3.36958793
   7.52445337  4.30534431  0.99621538
   6.73572063  4.41157020  2.39473047
   9.47309905  7.62605366  6.11017974
   9.10623698  6.15262587  6.46127210
   8.62758377  5.69434105  2.39918809
   8.94740716  5.91412721  3.85490203
   6.96355994  9.57995697  8.79646638
   4.31475247  8.97795934  8.56432944
   8.45934600  1.70063443  2.97646988
   9.49935510  0.69741095  2.93526989
 


--------------------------------------------------------------------------------------------------------


 use serial FFT for orbitals x direction half grid
 k-point  1 :   0.0000 0.0000 0.0000  plane waves:   24251

 maximum and minimum number of plane-waves per node :     24251    24251

 maximum number of plane-waves:     24251
 maximum index in each direction: 
   IXMAX=   22   IYMAX=   22   IZMAX=   22
   IXMIN=    0   IYMIN=  -22   IZMIN=  -22


 serial   3D FFT for wavefunctions
 parallel 3D FFT for charge:
    minimum data exchange during FFTs selected (reduces bandwidth)


 FFT grid for exact exchange (Hartree Fock) 
  NGX = 48; NGY = 48; NGZ = 48

 use serial FFT for orbitals x direction half grid
 
 Radii for the augmentation spheres in the non-local exchange
 for species   1 augmentation radius   0.559 (default was   0.559)
 error exchange integrals (PW-AE in eV) (mean, max) 3.01993.381 density error[0,qmax] 0.0085
 for species   2 augmentation radius   0.553 (default was   0.553)
 error exchange integrals (PW-AE in eV) (mean, max) 0.015 0.130 density error[0,qmax] 0.0001
 Maximum index for augmentation-charges in exchange           89
  SETUP_FOCK is finished
 use serial FFT for orbitals x direction half grid

 total amount of memory used by VASP MPI-rank0   173906. kBytes
=======================================================================

   base      :      30000. kBytes
   nonlr-proj:      74033. kBytes
   fftplans  :       7389. kBytes
   grid      :      41776. kBytes
   one-center:       1103. kBytes
   HF        :        387. kBytes
   wavefun   :      19218. kBytes
 
     INWAV:  cpu time    4.0437: real time    4.0634
 charge density for first step will be calculated from the start-wavefunctions


--------------------------------------------------------------------------------------------------------


 Maximum index for non-local projection operator         5551
 Maximum index for augmentation-charges          378 (set IRDMAX)


--------------------------------------------------------------------------------------------------------


 initial charge from wavefunction
    FEWALD:  cpu time    0.0017: real time    0.0017

 The Fermi energy was updated, please check that it is located mid-gap
 values below the HOMO (VB) or above the LUMO (CB) will cause erroneous energies
 E-fermi :   0.5654

 use serial FFT for orbitals x direction half grid


--------------------------------------------------------------------------------------------------------


    DPSIDK:  cpu time   19.2331: real time   19.2826
    DPSIDK:  cpu time   18.7032: real time   18.7519
    DPSIDK:  cpu time   18.5929: real time   18.6400

 plasma frequency squared (from intraband transitions) (eV^2)
  --------------------------------------------------------------------------------------
       0.000       0.000       0.000
       0.000       0.000       0.000
       0.000       0.000       0.000

 electrical conductivity sigma (Mega S m-1) (frequency dependency in vasprun.xml)
  --------------------------------------------------------------------------------------
       0.000       0.000       0.000
       0.000       0.000       0.000
       0.000       0.000       0.000

 plasma frequency squared (from interband transitions, int dw w eps(2)(w)) (eV^2)
  --------------------------------------------------------------------------------------
     445.486       0.000       0.229       0.000       0.064       0.000
       0.229       0.000     445.748       0.000       0.021       0.000
       0.064       0.000       0.021       0.000     443.734       0.000
  --------------------------------------------------------------------------------------
 sumrule: sum of plasma frequencies squared should yield (valence only):     373.339

 Anomalous Hall contribution (eV) 2/pi Imag((f_n-f_m)<u_m| d/dk_a u_n> <u_m| d/dk_b u_n>^*) 
  --------------------------------------------------------------------------------------
       0.000       0.000       0.000
       0.000       0.000       0.000
       0.000       0.000       0.000

  frequency dependent IMAGINARY DIELECTRIC FUNCTION (independent particle, no local field effects) density-density
     E(ev)      X         Y         Z        XY        YZ        ZX
  --------------------------------------------------------------------------------------------------------------
    0.000000    0.000000    0.000000    0.000000    0.000000    0.000000    0.000000
    0.901666    0.000377    0.000320    0.000356   -0.000002    0.000001    0.000006
    1.803333    0.000792    0.000655    0.000746   -0.000003    0.000002    0.000015
    2.704999    0.001332    0.001024    0.001244    0.000003    0.000005    0.000033
    3.606665    0.002488    0.001456    0.002239    0.000056    0.000021    0.000095
    4.508332    0.042616    0.002360    0.032415    0.003815    0.000766    0.002648
    5.409998    0.005048    0.002775    0.004896    0.000031    0.000079    0.000355
    6.311665    0.016865    0.006378    0.025742   -0.002430    0.000079    0.004556
    7.213331    0.025763    0.026043    0.015690   -0.003641    0.001349   -0.000687
    8.114997    0.026815    0.032913    0.025542    0.002452    0.003819   -0.000431
    9.016664    0.029880    0.045842    0.029975   -0.004071   -0.007611    0.004455
    9.918330    0.143539    0.114048    0.110662    0.023189   -0.001820   -0.003553
   10.819996    0.324861    0.170355    0.246710   -0.034194    0.026630   -0.003671
   11.721663    0.186038    0.196443    0.198956   -0.003764   -0.016163   -0.026525
   12.623329    0.436709    0.309197    0.453770   -0.031561   -0.020460    0.069211
   13.524995    0.439430    0.368584    0.522096    0.005885   -0.023567   -0.017703
   14.426662    0.599127    0.657352    0.627439   -0.019616   -0.025460   -0.044933
   15.328328    0.627153    0.643035    0.682479   -0.012941    0.027608   -0.007896
   16.229995    0.771157    0.811096    0.669681   -0.013427   -0.003984    0.051394
   17.131661    0.857550    0.915094    0.813725    0.037637    0.044885   -0.020219
   18.033327    1.077218    0.944415    0.858896    0.027209   -0.019669   -0.035452
   18.934994    1.137980    1.241044    1.090111   -0.030345   -0.026989    0.008546
   19.836660    1.279903    1.270124    1.185112   -0.070013    0.006284   -0.029083
   20.738326    1.468471    1.349318    1.309712   -0.044334   -0.056554   -0.082024
   21.639993    1.409592    1.454913    1.345221   -0.051538    0.026726    0.045365
   22.541659    1.361360    1.444763    1.267422    0.010243    0.035156    0.003544
   23.443325    1.340131    1.421138    1.261083    0.021524    0.017700    0.078747
   24.344992    1.150429    1.153361    1.103961    0.054363    0.006136    0.018040
   25.246658    0.977750    0.973199    1.040312    0.016039   -0.016883    0.013060
   26.148325    0.866184    0.922857    0.879093    0.042731   -0.072533    0.002779
   27.049991    0.810495    0.753092    0.731338   -0.008126   -0.014617    0.006545
   27.951657    0.650263    0.675424    0.679878   -0.003772    0.028753   -0.022009
   28.853324    0.555938    0.627499    0.609839   -0.005342    0.005084   -0.003313
   29.754990    0.516000    0.555749    0.507597    0.003707    0.014421    0.000241
   30.656656    0.387923    0.378920    0.408363   -0.010667   -0.011481   -0.001901
   31.558323    0.350794    0.355381    0.378695   -0.003167    0.006043    0.004114
   32.459989    0.328086    0.336422    0.341910    0.007898   -0.010353   -0.010013
   33.361655    0.317292    0.318573    0.337794    0.013668    0.000569   -0.006246
   34.263322    0.294648    0.296766    0.322408    0.010334   -0.004166    0.013699
   35.164988    0.283367    0.296138    0.276499    0.018404   -0.003742    0.002093
   36.066655    0.265774    0.265727    0.293063    0.010576   -0.007085   -0.010021
   36.968321    0.249882    0.238256    0.257747    0.005088    0.003026   -0.006815
   37.869987    0.245564    0.231942    0.254341   -0.012575    0.004311   -0.004233
   38.771654    0.234998    0.218318    0.244840   -0.001251   -0.003431    0.002534
   39.673320    0.213851    0.216727    0.214180   -0.006607    0.010236   -0.000973
   40.574986    0.186628    0.200733    0.210384    0.003329   -0.005258   -0.001033
   41.476653    0.188988    0.185402    0.191104    0.003231    0.006109   -0.009321
   42.378319    0.178091    0.173407    0.189493   -0.000289    0.006181   -0.001091
   43.279985    0.176052    0.186371    0.181566   -0.003999   -0.000025    0.002512
   44.181652    0.164984    0.171848    0.172393   -0.005001   -0.001345   -0.001045
   45.083318    0.155040    0.160306    0.168797    0.001374    0.001644   -0.001166
   45.984985    0.148157    0.151685    0.156109   -0.004167   -0.000018   -0.003369
   46.886651    0.144662    0.135551    0.153341    0.000993    0.002010    0.002987
   47.788317    0.126835    0.133086    0.140534   -0.000037   -0.000808   -0.004197
   48.689984    0.126567    0.122099    0.142157   -0.000811   -0.001790    0.004358
   49.591650    0.116419    0.122311    0.128928   -0.002251   -0.002232    0.000913
   50.493316    0.117929    0.111907    0.113584   -0.002599   -0.006688   -0.002224
   51.394983    0.106002    0.098435    0.105313   -0.003503   -0.003023   -0.000798
   52.296649    0.095557    0.091575    0.097377   -0.001181    0.001041   -0.000283
   53.198315    0.089015    0.085570    0.090208   -0.000100    0.000674   -0.002717
   54.099982    0.082146    0.078695    0.086079    0.001032   -0.001905   -0.002189
   55.001648    0.078435    0.079001    0.076269   -0.000150    0.002416   -0.002166
   55.903315    0.073805    0.076489    0.072149   -0.000494    0.003292   -0.000774
   56.804981    0.073551    0.071520    0.074306    0.000321    0.000121    0.001814
   57.706647    0.069595    0.068776    0.075763    0.001521   -0.000216    0.000375
   58.608314    0.067792    0.068938    0.065875   -0.000650    0.000707    0.000784
   59.509980    0.065237    0.062823    0.064348    0.000189    0.001103    0.000561
   60.411646    0.064210    0.057429    0.063713   -0.001136    0.000589    0.001939
   61.313313    0.059779    0.055925    0.064203    0.000144    0.000773   -0.000616
   62.214979    0.055988    0.056346    0.061779    0.000397   -0.000289    0.000795
   63.116645    0.054039    0.054475    0.058948   -0.001866    0.001050    0.000377
   64.018312    0.052137    0.050848    0.052021   -0.001443   -0.001031    0.000777
   64.919978    0.051490    0.050007    0.051508    0.001204    0.000452   -0.000863
   65.821645    0.048009    0.048986    0.051432   -0.000240    0.001410   -0.000879
   66.723311    0.048118    0.045877    0.048648   -0.000320    0.001631   -0.001486
   67.624977    0.045928    0.043400    0.048775   -0.001529   -0.000869   -0.000842
   68.526644    0.045947    0.045681    0.047793   -0.000501   -0.000909   -0.000788
   69.428310    0.043065    0.045593    0.043975   -0.001440   -0.001321    0.000665
   70.329976    0.041432    0.040233    0.043708    0.001305   -0.000100   -0.000488
   71.231643    0.039873    0.037864    0.041296   -0.001489    0.000717   -0.000645
   72.133309    0.035915    0.036107    0.039383    0.000391    0.001092    0.000173
   73.034975    0.036037    0.035054    0.036673   -0.000003   -0.000212   -0.000423
   73.936642    0.034410    0.034460    0.036375   -0.000510   -0.001046   -0.000397
   74.838308    0.033164    0.031463    0.034222   -0.001378    0.000302   -0.000682
   75.739975    0.031447    0.030389    0.031118   -0.000650   -0.000494   -0.000758
   76.641641    0.029780    0.030310    0.029741    0.000278   -0.000228    0.000750
   77.543307    0.027848    0.027692    0.027769   -0.000354   -0.000509    0.000036
   78.444974    0.029046    0.028411    0.028233   -0.001153   -0.000337   -0.000449
   79.346640    0.027625    0.028364    0.029555    0.000377   -0.000613   -0.000402
   80.248306    0.028829    0.028148    0.030169   -0.000466   -0.000128    0.000608
   81.149973    0.028221    0.028179    0.029567   -0.000641    0.000519   -0.000929
   82.051639    0.028362    0.027500    0.028481   -0.000268    0.000013    0.000511
   82.953305    0.027108    0.027235    0.027110   -0.000010    0.000627    0.000652
   83.854972    0.024649    0.025424    0.025547   -0.000173   -0.000772    0.000099
   84.756638    0.024897    0.024199    0.024282   -0.000035    0.000578    0.000441
   85.658305    0.024150    0.022644    0.022570   -0.000137   -0.000571    0.000032
   86.559971    0.022859    0.021560    0.022211    0.000244   -0.000629    0.000637
   87.461637    0.020828    0.020998    0.021795   -0.000496   -0.000387    0.000164
   88.363304    0.020228    0.019587    0.021328   -0.000376   -0.000451    0.000085
   89.264970    0.018700    0.019120    0.018655   -0.000169    0.000056    0.000319
   90.166636    0.017982    0.017840    0.017746   -0.000364    0.000407   -0.000202
   91.068303    0.017422    0.016549    0.017588   -0.000414    0.000248   -0.000026
   91.969969    0.016796    0.016381    0.017134   -0.000436    0.000051   -0.000275
   92.871635    0.016083    0.016156    0.016299   -0.000619   -0.000227    0.000069
   93.773302    0.016108    0.016127    0.015405    0.000656    0.000140    0.000106
   94.674968    0.015470    0.014655    0.015285   -0.000434    0.000022    0.000034
   95.576635    0.015008    0.014275    0.015022   -0.000542   -0.000211    0.000288
   96.478301    0.014165    0.014031    0.013942   -0.000097    0.000174   -0.000098
   97.379967    0.014628    0.014374    0.014995    0.000151    0.000107    0.000061
   98.281634    0.014209    0.013534    0.013778   -0.000134   -0.000367   -0.000448
   99.183300    0.013488    0.012868    0.013481   -0.000109   -0.000249    0.000156
  100.084966    0.012488    0.012570    0.012932   -0.000109    0.000122    0.000078
  100.986633    0.012376    0.012006    0.011863   -0.000028    0.000098    0.000147
  101.888299    0.011663    0.011514    0.011644    0.000323    0.000201    0.000084
  102.789965    0.011214    0.011140    0.011532   -0.000186    0.000196    0.000022
  103.691632    0.012204    0.011024    0.011800    0.000037    0.000021    0.000233
  104.593298    0.011176    0.010908    0.011551    0.000118   -0.000187    0.000095
  105.494965    0.011694    0.010996    0.011653   -0.000292   -0.000041    0.000252
  106.396631    0.011202    0.011064    0.010919   -0.000314   -0.000149    0.000072
  107.298297    0.010438    0.009861    0.010494    0.000088   -0.000032   -0.000064
  108.199964    0.009544    0.009869    0.010163   -0.000269    0.000201    0.000170
  109.101630    0.009540    0.009440    0.009824   -0.000076   -0.000017   -0.000156
  110.003296    0.009543    0.009684    0.009885    0.000060    0.000029   -0.000169
  110.904963    0.009361    0.009065    0.010123   -0.000020    0.000371    0.000128
  111.806629    0.009214    0.008892    0.009244   -0.000054   -0.000213   -0.000070
  112.708295    0.008526    0.008690    0.008823   -0.000135   -0.000124    0.000142
  113.609962    0.008129    0.007892    0.008377   -0.000025    0.000024   -0.000058
  114.511628    0.008146    0.007770    0.007548   -0.000087   -0.000013   -0.000123
  115.413295    0.007553    0.007715    0.007598   -0.000026    0.000131    0.000091
  116.314961    0.007903    0.007660    0.007416   -0.000152    0.000160   -0.000125
  117.216627    0.007734    0.007649    0.007974   -0.000014   -0.000211   -0.000012
  118.118294    0.007419    0.007501    0.007508   -0.000016   -0.000165    0.000263
  119.019960    0.007237    0.007372    0.007324    0.000107   -0.000087   -0.000077
  119.921626    0.006828    0.006868    0.006972   -0.000200    0.000028   -0.000062
  120.823293    0.006621    0.006578    0.006964    0.000025    0.000086    0.000124
  121.724959    0.006475    0.006651    0.006737   -0.000132    0.000005    0.000038
  122.626625    0.006483    0.006257    0.006776   -0.000060    0.000067   -0.000118
  123.528292    0.006084    0.005809    0.006334    0.000029   -0.000019   -0.000066
  124.429958    0.005636    0.005691    0.005861    0.000025   -0.000082   -0.000163
  125.331625    0.005559    0.005410    0.005895   -0.000014   -0.000030   -0.000027
  126.233291    0.005252    0.005162    0.005307   -0.000068   -0.000010   -0.000084
  127.134957    0.005099    0.005118    0.005121   -0.000003   -0.000028   -0.000116
  128.036624    0.005106    0.005153    0.005139   -0.000009   -0.000028   -0.000110
  128.938290    0.005009    0.004788    0.004994   -0.000048   -0.000014   -0.000020
  129.839956    0.004163    0.003908    0.004156    0.000100   -0.000034   -0.000057
  130.741623    0.003635    0.003632    0.003603   -0.000072    0.000025    0.000016
  131.643289    0.003198    0.003184    0.003013    0.000039   -0.000030    0.000112
  132.544955    0.003024    0.002816    0.002712   -0.000004   -0.000078    0.000166
  133.446622    0.002672    0.002627    0.002535   -0.000013    0.000024   -0.000002
  134.348288    0.002656    0.002816    0.002542    0.000142   -0.000067    0.000120
  135.249955    0.002394    0.002505    0.002393    0.000010    0.000046   -0.000000
  136.151621    0.001762    0.001875    0.001858   -0.000043    0.000000   -0.000082
  137.053287    0.001410    0.001369    0.001426   -0.000007    0.000031    0.000026
  137.954954    0.001301    0.001255    0.001372    0.000041   -0.000004    0.000014
  138.856620    0.001254    0.001197    0.001298   -0.000024    0.000021    0.000049
  139.758286    0.001370    0.001190    0.001354   -0.000008    0.000003    0.000008
  140.659953    0.001252    0.001291    0.001245   -0.000061   -0.000004   -0.000044
  141.561619    0.001330    0.001292    0.001202   -0.000022    0.000005   -0.000032
  142.463285    0.001250    0.001374    0.001272    0.000010    0.000024   -0.000051
  143.364952    0.001222    0.001223    0.001246   -0.000019   -0.000005    0.000007
  144.266618    0.001215    0.001245    0.001305    0.000012    0.000001    0.000060
  145.168285    0.001305    0.001298    0.001431   -0.000004    0.000034   -0.000035
  146.069951    0.001450    0.001303    0.001481   -0.000039   -0.000054    0.000011
  146.971617    0.001397    0.001300    0.001435   -0.000042    0.000020   -0.000026
  147.873284    0.001302    0.001305    0.001169   -0.000008    0.000023   -0.000032
  148.774950    0.000793    0.000850    0.000947    0.000005   -0.000015    0.000028
  149.676616    0.000289    0.000326    0.000334   -0.000022   -0.000009    0.000007
  150.578283    0.000069    0.000073    0.000074   -0.000001   -0.000001    0.000001
  151.479949    0.000053    0.000053    0.000054   -0.000000   -0.000000    0.000000
  152.381615    0.000046    0.000046    0.000047   -0.000000   -0.000000    0.000000
  153.283282    0.000043    0.000042    0.000043   -0.000000   -0.000000   -0.000000
  154.184948    0.000040    0.000040    0.000040   -0.000000   -0.000000   -0.000000
  155.086615    0.000038    0.000038    0.000038   -0.000000   -0.000000   -0.000000
  155.988281    0.000036    0.000036    0.000036   -0.000000   -0.000000   -0.000000
  156.889947    0.000035    0.000035    0.000035   -0.000000   -0.000000   -0.000000
  157.791614    0.000034    0.000033    0.000034   -0.000000   -0.000000   -0.000000
  158.693280    0.000032    0.000032    0.000033   -0.000000   -0.000000   -0.000000
  159.594946    0.000031    0.000031    0.000032   -0.000000   -0.000000   -0.000000
  160.496613    0.000030    0.000030    0.000031   -0.000000   -0.000000   -0.000000
  161.398279    0.000030    0.000030    0.000030   -0.000000   -0.000000   -0.000000
  162.299945    0.000029    0.000029    0.000029   -0.000000   -0.000000   -0.000000
  163.201612    0.000028    0.000028    0.000028   -0.000000   -0.000000   -0.000000
  164.103278    0.000027    0.000027    0.000027   -0.000000   -0.000000   -0.000000
  165.004945    0.000027    0.000027    0.000027   -0.000000   -0.000000   -0.000000
  165.906611    0.000026    0.000026    0.000026   -0.000000   -0.000000   -0.000000
  166.808277    0.000025    0.000025    0.000025   -0.000000   -0.000000   -0.000000
  167.709944    0.000025    0.000025    0.000025   -0.000000   -0.000000   -0.000000
  168.611610    0.000024    0.000024    0.000024   -0.000000   -0.000000   -0.000000
  169.513276    0.000024    0.000024    0.000024   -0.000000   -0.000000   -0.000000
  170.414943    0.000023    0.000023    0.000023   -0.000000   -0.000000   -0.000000
  171.316609    0.000023    0.000023    0.000023   -0.000000   -0.000000   -0.000000
  172.218275    0.000022    0.000022    0.000022   -0.000000   -0.000000   -0.000000
  173.119942    0.000022    0.000022    0.000022   -0.000000   -0.000000   -0.000000
  174.021608    0.000021    0.000021    0.000021   -0.000000   -0.000000   -0.000000
  174.923275    0.000021    0.000021    0.000021   -0.000000   -0.000000   -0.000000
  175.824941    0.000021    0.000021    0.000021   -0.000000   -0.000000   -0.000000
  176.726607    0.000020    0.000020    0.000020   -0.000000   -0.000000    0.000000
  177.628274    0.000020    0.000020    0.000020   -0.000000   -0.000000    0.000000
  178.529940    0.000019    0.000019    0.000019   -0.000000   -0.000000    0.000000
  179.431606    0.000019    0.000019    0.000019   -0.000000   -0.000000    0.000000
  180.333273    0.000019    0.000019    0.000019   -0.000000   -0.000000    0.000000

  frequency dependent      REAL DIELECTRIC FUNCTION (independent particle, no local field effects) density-density
     E(ev)        X           Y           Z          XY          YZ          ZX
  --------------------------------------------------------------------------------------------------------------
    0.000000    1.652923    1.642618    1.632337   -0.001087   -0.000251    0.001948
    0.901666    1.654607    1.644055    1.633930   -0.001096   -0.000248    0.001976
    1.803333    1.659824    1.648434    1.638856   -0.001118   -0.000238    0.002069
    2.704999    1.669237    1.655967    1.647689   -0.001125   -0.000209    0.002272
    3.606665    1.685357    1.667075    1.662521   -0.000954   -0.000111    0.002769
    4.508332    1.714690    1.682536    1.693962   -0.000116    0.000427    0.005595
    5.409998    1.705196    1.703258    1.681752   -0.004174   -0.000513    0.001123
    6.311665    1.757979    1.734628    1.726985   -0.005706    0.000809    0.003524
    7.213331    1.744095    1.777945    1.732499   -0.003088   -0.002390    0.000840
    8.114997    1.822647    1.808865    1.798592   -0.002805   -0.001442   -0.005847
    9.016664    1.858631    1.863503    1.841575   -0.001089   -0.005726    0.000931
    9.918330    1.959707    1.885599    1.956228   -0.015911    0.002850    0.003423
   10.819996    2.020299    1.958930    1.959164   -0.028451    0.010680   -0.012957
   11.721663    1.995719    2.048191    1.978087    0.017930    0.006879    0.000636
   12.623329    2.147401    2.023533    1.989984   -0.015281    0.005469    0.003916
   13.524995    1.977746    2.046312    1.965603    0.029084    0.035072   -0.017902
   14.426662    2.013884    2.079971    1.982805   -0.011093    0.014348    0.011503
   15.328328    1.933359    2.055557    1.901932    0.005752    0.009887    0.032968
   16.229995    1.974612    2.052974    1.894707    0.011075    0.029492   -0.000426
   17.131661    1.958448    1.909761    1.854765    0.008952   -0.022418   -0.068338
   18.033327    1.964347    1.879142    1.875935   -0.039328   -0.049663   -0.007698
   18.934994    1.854767    1.845532    1.844599   -0.036166    0.038649    0.024434
   19.836660    1.664008    1.672589    1.647583    0.042589    0.025569    0.023246
   20.738326    1.520792    1.531914    1.520045   -0.029261    0.015726    0.030646
   21.639993    1.211240    1.333242    1.338534    0.063438    0.033466    0.019343
   22.541659    1.018331    1.038880    1.092852    0.079066   -0.033011    0.029549
   23.443325    0.788116    0.712409    0.824193    0.018249   -0.035428    0.055128
   24.344992    0.679966    0.647419    0.806542   -0.019239    0.007992   -0.073888
   25.246658    0.601051    0.629433    0.627441    0.014332   -0.048391   -0.004095
   26.148325    0.591212    0.556529    0.640214   -0.008633   -0.002447   -0.019223
   27.049991    0.567888    0.516869    0.625686   -0.068738    0.027869    0.008235
   27.951657    0.503720    0.566191    0.581910   -0.025186    0.030118   -0.012573
   28.853324    0.522885    0.536081    0.570973    0.000284   -0.002971   -0.011722
   29.754990    0.518338    0.457142    0.544243   -0.011995   -0.020964    0.005758
   30.656656    0.543754    0.555596    0.595559   -0.001806    0.003041   -0.010644
   31.558323    0.644219    0.619402    0.644706    0.000861    0.001617   -0.015545
   32.459989    0.654878    0.645790    0.678982    0.002365   -0.007011   -0.005349
   33.361655    0.672739    0.686799    0.719131    0.003788   -0.011037    0.007424
   34.263322    0.699564    0.691709    0.706167    0.006649   -0.001085    0.002734
   35.164988    0.719717    0.685182    0.711169   -0.004502   -0.001133   -0.002568
   36.066655    0.726311    0.706066    0.745535   -0.017393    0.001286   -0.008524
   36.968321    0.745708    0.720494    0.746464   -0.019618   -0.001515   -0.001096
   37.869987    0.750417    0.736479    0.758417   -0.003991   -0.000660   -0.005396
   38.771654    0.748835    0.752807    0.752913   -0.011811    0.011921   -0.004639
   39.673320    0.736579    0.765846    0.761608    0.001033   -0.001845    0.005390
   40.574986    0.763715    0.760168    0.766890   -0.002856    0.007288   -0.001565
   41.476653    0.772341    0.773071    0.777423   -0.005040    0.003769   -0.003964
   42.378319    0.780903    0.786297    0.782747   -0.006763   -0.002932    0.006483
   43.279985    0.785419    0.787330    0.786594   -0.004033   -0.003403   -0.000852
   44.181652    0.792889    0.791643    0.796603   -0.003690   -0.000551    0.001407
   45.083318    0.789245    0.790644    0.798392    0.002752   -0.001669   -0.000940
   45.984985    0.800745    0.788462    0.804056   -0.001540   -0.004546   -0.001318
   46.886651    0.802252    0.799319    0.798935   -0.002177    0.000176   -0.001285
   47.788317    0.811685    0.796005    0.802326    0.000281   -0.001849   -0.002200
   48.689984    0.811926    0.807726    0.811887   -0.002499    0.000366    0.004811
   49.591650    0.816575    0.810059    0.806076   -0.001554   -0.002909   -0.002583
   50.493316    0.820857    0.814596    0.810294   -0.000964    0.000358   -0.002032
   51.394983    0.820442    0.817487    0.823078    0.001592    0.003752   -0.001656
   52.296649    0.824643    0.828677    0.824048    0.001012   -0.000053    0.001817
   53.198315    0.836457    0.829556    0.829440    0.001251    0.000870   -0.001375
   54.099982    0.839079    0.842467    0.839077    0.000387    0.003839    0.002069
   55.001648    0.847168    0.851542    0.844065    0.000796    0.002837    0.002681
   55.903315    0.852512    0.850858    0.854272   -0.001141   -0.000665    0.002467
   56.804981    0.855053    0.856574    0.859747   -0.000326   -0.000463    0.000331
   57.706647    0.860114    0.861294    0.858974    0.000683    0.002988    0.001054
   58.608314    0.864201    0.861795    0.863921   -0.002056   -0.001308   -0.000113
   59.509980    0.868806    0.861763    0.869712   -0.002181    0.000639   -0.000927
   60.411646    0.871484    0.871251    0.874534   -0.001743    0.000388   -0.000471
   61.313313    0.875784    0.875934    0.878248   -0.001387   -0.002015    0.000595
   62.214979    0.878898    0.879894    0.877567   -0.000784    0.000365   -0.000103
   63.116645    0.882249    0.882090    0.879632   -0.001405   -0.000261   -0.001126
   64.018312    0.883387    0.887117    0.882253    0.000576    0.001494   -0.000839
   64.919978    0.887104    0.885994    0.889021    0.000502    0.001218   -0.000210
   65.821645    0.891647    0.889859    0.892533   -0.001303    0.001798   -0.000792
   66.723311    0.895208    0.893764    0.891432   -0.001527   -0.001071   -0.000593
   67.624977    0.895491    0.896442    0.898011   -0.000558   -0.000658   -0.001004
   68.526644    0.897507    0.899008    0.898213   -0.000152   -0.000438    0.001150
   69.428310    0.899588    0.898366    0.898423    0.000999   -0.000120    0.000533
   70.329976    0.900253    0.898467    0.902672   -0.000595    0.000185   -0.000271
   71.231643    0.901739    0.901162    0.902585    0.000215    0.000904   -0.000116
   72.133309    0.904992    0.905057    0.905742   -0.000165    0.000145   -0.000289
   73.034975    0.907377    0.909135    0.906175   -0.001021   -0.000923   -0.000517
   73.936642    0.910340    0.908688    0.907702   -0.000256   -0.001263    0.001088
   74.838308    0.910906    0.911156    0.908691    0.000856   -0.000091    0.000238
   75.739975    0.911676    0.913755    0.912283    0.000213   -0.000180    0.001067
   76.641641    0.916395    0.915484    0.915243    0.000506   -0.000391    0.000373
   77.543307    0.918610    0.919198    0.918004   -0.001166    0.000657   -0.000343
   78.444974    0.921522    0.921062    0.922129    0.000215   -0.000322   -0.000273
   79.346640    0.923235    0.922632    0.923236   -0.000411    0.000820    0.000743
   80.248306    0.924247    0.925163    0.923651    0.000043    0.001285    0.000285
   81.149973    0.925123    0.925443    0.924548   -0.000167    0.000527    0.000755
   82.051639    0.926350    0.925898    0.924539   -0.000273    0.000271    0.000282
   82.953305    0.926097    0.926629    0.925585   -0.000081   -0.000926    0.000303
   83.854972    0.927457    0.926721    0.926605    0.000068    0.000091   -0.000205
   84.756638    0.928451    0.927798    0.928800   -0.000183   -0.000292    0.000284
   85.658305    0.929729    0.929165    0.929220   -0.000165   -0.000246    0.000007
   86.559971    0.929731    0.931281    0.931095   -0.000239   -0.000103   -0.000553
   87.461637    0.930527    0.932205    0.931018   -0.000507    0.000186   -0.000039
   88.363304    0.933350    0.932848    0.932697    0.000523    0.000428   -0.000122
   89.264970    0.933699    0.933824    0.933724   -0.000044    0.000639   -0.000100
   90.166636    0.935980    0.935688    0.935615    0.000100    0.000374   -0.000238
   91.068303    0.937429    0.937034    0.937379    0.000083   -0.000231    0.000513
   91.969969    0.938606    0.938678    0.938444    0.000309    0.000101   -0.000070
   92.871635    0.939806    0.940422    0.939927   -0.000045   -0.000314   -0.000233
   93.773302    0.941163    0.940654    0.940222    0.000295    0.000105   -0.000040
   94.674968    0.941925    0.941902    0.942483   -0.000156   -0.000193    0.000210
   95.576635    0.943026    0.942971    0.943452    0.000381    0.000147    0.000170
   96.478301    0.944576    0.944450    0.944897    0.000173    0.000239   -0.000205
   97.379967    0.945183    0.945162    0.945402    0.000149    0.000068    0.000013
   98.281634    0.946147    0.946098    0.945828    0.000273    0.000064    0.000300
   99.183300    0.946117    0.947026    0.947039   -0.000001    0.000181    0.000343
  100.084966    0.947321    0.947345    0.947600    0.000258    0.000066   -0.000213
  100.986633    0.948329    0.948673    0.948510    0.000430   -0.000005    0.000015
  101.888299    0.949574    0.949416    0.950077    0.000149   -0.000035    0.000022
  102.789965    0.951345    0.950968    0.951326   -0.000070   -0.000307    0.000047
  103.691632    0.952199    0.951913    0.951860    0.000038   -0.000029    0.000258
  104.593298    0.952096    0.952630    0.953042   -0.000202   -0.000013   -0.000122
  105.494965    0.953139    0.953380    0.952888   -0.000436   -0.000069   -0.000170
  106.396631    0.953179    0.953337    0.953417    0.000146   -0.000171   -0.000427
  107.298297    0.953704    0.954125    0.954054   -0.000184    0.000307   -0.000090
  108.199964    0.954579    0.954982    0.955064    0.000047    0.000089   -0.000258
  109.101630    0.955650    0.955949    0.955871    0.000127   -0.000206   -0.000091
  110.003296    0.956513    0.956383    0.956556    0.000184    0.000237    0.000159
  110.904963    0.956727    0.956739    0.956763    0.000060   -0.000005   -0.000127
  111.806629    0.957078    0.957824    0.957056    0.000011   -0.000013    0.000112
  112.708295    0.957824    0.957703    0.957576    0.000017    0.000036   -0.000105
  113.609962    0.958635    0.958722    0.958415    0.000080    0.000041   -0.000177
  114.511628    0.959403    0.959251    0.959326    0.000178    0.000125   -0.000006
  115.413295    0.959845    0.960475    0.960146   -0.000065    0.000052    0.000134
  116.314961    0.960564    0.960989    0.960873    0.000260   -0.000049   -0.000173
  117.216627    0.961285    0.961224    0.961005    0.000043   -0.000241    0.000170
  118.118294    0.961643    0.961599    0.961452    0.000082   -0.000046   -0.000009
  119.019960    0.961687    0.961921    0.961927   -0.000221    0.000105   -0.000040
  119.921626    0.962214    0.962289    0.962578   -0.000119    0.000139   -0.000090
  120.823293    0.962587    0.962929    0.962973    0.000133    0.000005   -0.000033
  121.724959    0.963239    0.963172    0.963373   -0.000048   -0.000080   -0.000018
  122.626625    0.963733    0.963518    0.963638   -0.000082   -0.000000   -0.000130
  123.528292    0.963989    0.964201    0.963912    0.000139   -0.000020   -0.000101
  124.429958    0.964288    0.964627    0.964249    0.000016    0.000025    0.000081
  125.331625    0.964911    0.964794    0.964782    0.000056    0.000018    0.000049
  126.233291    0.965298    0.965337    0.965008   -0.000044    0.000064    0.000060
  127.134957    0.965921    0.965939    0.965671    0.000035   -0.000017    0.000020
  128.036624    0.966048    0.966101    0.965983    0.000057    0.000061    0.000090
  128.938290    0.966025    0.966082    0.965838    0.000027   -0.000080   -0.000003
  129.839956    0.966141    0.966295    0.965911    0.000043   -0.000003    0.000057
  130.741623    0.966737    0.966922    0.966633   -0.000003   -0.000018    0.000084
  131.643289    0.967431    0.967497    0.967229    0.000088   -0.000010    0.000084
  132.544955    0.967924    0.968195    0.968117    0.000062    0.000095    0.000009
  133.446622    0.968466    0.968724    0.968602    0.000068    0.000087    0.000016
  134.348288    0.968916    0.969241    0.969258    0.000022    0.000042   -0.000062
  135.249955    0.969069    0.969317    0.969359   -0.000028    0.000007   -0.000077
  136.151621    0.969649    0.969727    0.969785   -0.000068    0.000112   -0.000090
  137.053287    0.970496    0.970495    0.970487   -0.000017   -0.000069    0.000053
  137.954954    0.971264    0.971205    0.971256   -0.000023   -0.000031   -0.000020
  138.856620    0.971863    0.971831    0.971835   -0.000055   -0.000029    0.000003
  139.758286    0.972403    0.972484    0.972354    0.000016   -0.000001   -0.000035
  140.659953    0.972798    0.972972    0.972878   -0.000034    0.000022   -0.000051
  141.561619    0.973264    0.973381    0.973305    0.000053   -0.000010   -0.000004
  142.463285    0.973646    0.973710    0.973781    0.000076    0.000034    0.000007
  143.364952    0.974013    0.974167    0.974172   -0.000035   -0.000015    0.000037
  144.266618    0.974461    0.974394    0.974533    0.000004    0.000003   -0.000017
  145.168285    0.974879    0.974861    0.974871   -0.000035   -0.000028    0.000019
  146.069951    0.975043    0.975011    0.975068    0.000009   -0.000021   -0.000007
  146.971617    0.975156    0.975198    0.975183    0.000028    0.000031    0.000011
  147.873284    0.975194    0.975226    0.975266    0.000065    0.000001    0.000053
  148.774950    0.975302    0.975334    0.975252   -0.000007   -0.000070    0.000007
  149.676616    0.975683    0.975746    0.975681    0.000040    0.000014    0.000008
  150.578283    0.976397    0.976417    0.976390    0.000022    0.000006   -0.000003
  151.479949    0.976928    0.976953    0.976937    0.000016    0.000004   -0.000001
  152.381615    0.977370    0.977395    0.977386    0.000014    0.000003   -0.000001
  153.283282    0.977770    0.977794    0.977790    0.000012    0.000002   -0.000001
  154.184948    0.978141    0.978164    0.978164    0.000010    0.000002   -0.000001
  155.086615    0.978492    0.978514    0.978517    0.000009    0.000002   -0.000001
  155.988281    0.978825    0.978847    0.978853    0.000008    0.000001   -0.000001
  156.889947    0.979146    0.979166    0.979174    0.000007    0.000001   -0.000001
  157.791614    0.979454    0.979473    0.979484    0.000007    0.000001   -0.000001
  158.693280    0.979751    0.979770    0.979782    0.000006    0.000001   -0.000001
  159.594946    0.980039    0.980057    0.980070    0.000005    0.000001   -0.000001
  160.496613    0.980318    0.980335    0.980350    0.000005    0.000001   -0.000001
  161.398279    0.980589    0.980605    0.980622    0.000004    0.000001   -0.000001
  162.299945    0.980853    0.980868    0.980886    0.000004    0.000001   -0.000001
  163.201612    0.981109    0.981124    0.981143    0.000004    0.000001   -0.000001
  164.103278    0.981359    0.981374    0.981393    0.000003    0.000000   -0.000001
  165.004945    0.981603    0.981617    0.981637    0.000003    0.000000   -0.000001
  165.906611    0.981841    0.981854    0.981875    0.000003    0.000000   -0.000001
  166.808277    0.982073    0.982086    0.982108    0.000002    0.000000   -0.000001
  167.709944    0.982300    0.982312    0.982335    0.000002    0.000000   -0.000001
  168.611610    0.982522    0.982533    0.982557    0.000002    0.000000   -0.000001
  169.513276    0.982738    0.982750    0.982774    0.000002    0.000000   -0.000001
  170.414943    0.982951    0.982961    0.982986    0.000001    0.000000   -0.000001
  171.316609    0.983158    0.983168    0.983194    0.000001    0.000000   -0.000001
  172.218275    0.983362    0.983371    0.983397    0.000001    0.000000   -0.000001
  173.119942    0.983561    0.983570    0.983596    0.000001    0.000000   -0.000001
  174.021608    0.983756    0.983765    0.983791    0.000001    0.000000   -0.000001
  174.923275    0.983947    0.983955    0.983982    0.000001    0.000000   -0.000001
  175.824941    0.984134    0.984142    0.984169    0.000000    0.000000   -0.000001
  176.726607    0.984318    0.984326    0.984353    0.000000    0.000000   -0.000001
  177.628274    0.984498    0.984505    0.984533    0.000000    0.000000   -0.000001
  178.529940    0.984675    0.984682    0.984710    0.000000    0.000000   -0.000001
  179.431606    0.984848    0.984855    0.984883   -0.000000    0.000000   -0.000001
  180.333273    0.985018    0.985025    0.985053   -0.000000    0.000000   -0.000001

  frequency dependent IMAGINARY DIELECTRIC FUNCTION (independent particle, no local field effects) current-current (2nd set in vasprun.xml)
     E(ev)      X         Y         Z        XY        YZ        ZX
  --------------------------------------------------------------------------------------------------------------
    0.000000    1.448759    1.425828    1.403069   -0.002413   -0.000556    0.004329
    0.901666    0.145620    0.143216    0.141011   -0.000245   -0.000054    0.000445
    1.803333    0.073995    0.072590    0.071622   -0.000127   -0.000025    0.000245
    2.704999    0.050835    0.049538    0.049152   -0.000080   -0.000010    0.000201
    3.606665    0.040532    0.038459    0.039010    0.000005    0.000016    0.000251
    4.508332    0.075578    0.032662    0.064459    0.003930    0.000822    0.003068
    5.409998    0.031106    0.028787    0.030083   -0.000128    0.000060    0.000392
    6.311665    0.041348    0.029752    0.049376   -0.002671    0.000123    0.004774
[...]
  169.542856    0.000003    0.000003    0.000003   -0.000000   -0.000000   -0.000000
  170.444680    0.000003    0.000003    0.000003   -0.000000   -0.000000   -0.000000
  171.346503    0.000003    0.000003    0.000003   -0.000000   -0.000000   -0.000000
  172.248327    0.000003    0.000003    0.000003   -0.000000   -0.000000   -0.000000
  173.150151    0.000003    0.000003    0.000003   -0.000000   -0.000000   -0.000000
  174.051974    0.000003    0.000003    0.000003   -0.000000   -0.000000   -0.000000
  174.953798    0.000003    0.000003    0.000003   -0.000000   -0.000000   -0.000000
  175.855622    0.000003    0.000002    0.000003   -0.000000   -0.000000   -0.000000
  176.757445    0.000002    0.000002    0.000002   -0.000000   -0.000000   -0.000000
  177.659269    0.000002    0.000002    0.000002   -0.000000   -0.000000   -0.000000
  178.561093    0.000002    0.000002    0.000002   -0.000000   -0.000000   -0.000000
  179.462917    0.000002    0.000002    0.000002   -0.000000   -0.000000   -0.000000
  180.364740    0.000002    0.000002    0.000002   -0.000000   -0.000000   -0.000000

  frequency dependent      REAL DIELECTRIC FUNCTION (independent particle, no local field effects) current-current (2nd set in vasprun.xml)
     E(ev)        X           Y           Z          XY          YZ          ZX
  --------------------------------------------------------------------------------------------------------------
    0.000000    1.651693    1.641364    1.631075   -0.001102   -0.000260    0.001947
    0.901824    1.653358    1.642781    1.632648   -0.001111   -0.000257    0.001975
    1.803647    1.658568    1.647142    1.637563   -0.001133   -0.000247    0.002069
    2.705471    1.667986    1.654643    1.646392   -0.001139   -0.000217    0.002275
    3.607295    1.684251    1.665706    1.661329   -0.000955   -0.000114    0.002782
    4.509119    1.706440    1.681041    1.687954   -0.000802    0.000329    0.005430
    5.410942    1.704425    1.701776    1.680934   -0.004168   -0.000496    0.001231
    6.312766    1.756843    1.732962    1.722526   -0.005464    0.001000    0.002754
    7.214590    1.743252    1.774808    1.730549   -0.003165   -0.002452    0.001122
    8.116413    1.821512    1.805871    1.795813   -0.003703   -0.001514   -0.006179
    9.018237    1.857527    1.860069    1.839265   -0.000385   -0.004681    0.000870
    9.920061    1.947430    1.881680    1.949102   -0.015055    0.003449    0.002435
   10.821884    2.018956    1.956941    1.946239   -0.027032    0.013614   -0.011111
   11.723708    1.984893    2.039689    1.965988    0.019085    0.008182    0.000645
   12.625532    2.144353    2.016832    1.980344   -0.016246    0.004842    0.005970
   13.527356    1.960994    2.035569    1.956787    0.030278    0.033516   -0.019228
   14.429179    2.006127    2.075022    1.975003   -0.011885    0.014434    0.009494
   15.331003    1.927677    2.046671    1.895802    0.006377    0.010841    0.030932
   16.232827    1.967299    2.044498    1.885394    0.009968    0.026437    0.001220
   17.134650    1.948085    1.893813    1.847000    0.009311   -0.017365   -0.068791
   18.036474    1.954511    1.867676    1.865150   -0.037978   -0.048597   -0.008375
   18.938298    1.840489    1.847339    1.839229   -0.039380    0.036387    0.027389
   19.840121    1.650693    1.658516    1.635305    0.041847    0.026230    0.023425
   20.741945    1.520874    1.519979    1.522467   -0.033047    0.009953    0.023354
   21.643769    1.207950    1.333149    1.336754    0.061059    0.032359    0.023415
   22.545593    1.010366    1.032229    1.081761    0.079694   -0.030726    0.027351
   23.447416    0.781081    0.709908    0.817959    0.015487   -0.033669    0.058074
   24.349240    0.673775    0.639270    0.800205   -0.020124    0.009118   -0.073481
   25.251064    0.593860    0.618614    0.627057    0.013164   -0.050031   -0.004686
   26.152887    0.585328    0.551670    0.636082   -0.007323   -0.005179   -0.021609
   27.054711    0.562651    0.510460    0.616721   -0.069282    0.027864    0.009106
   27.956535    0.496815    0.561738    0.575960   -0.025557    0.030467   -0.014471
   28.858358    0.520167    0.533902    0.567653   -0.000235   -0.003187   -0.012353
   29.760182    0.514020    0.452777    0.538967   -0.012014   -0.020541    0.005887
   30.662006    0.539229    0.550979    0.590992   -0.002017    0.003186   -0.010599
   31.563830    0.639887    0.615752    0.640915    0.001033    0.002234   -0.015698
   32.465653    0.651909    0.643319    0.676046    0.002552   -0.007575   -0.005099
   33.367477    0.670890    0.683988    0.716681    0.003605   -0.011475    0.007168
   34.269301    0.697630    0.689104    0.704164    0.006521   -0.000931    0.002615
   35.171124    0.717602    0.683452    0.709148   -0.004756   -0.001065   -0.002666
   36.072948    0.724960    0.704620    0.743946   -0.017374    0.001058   -0.008648
   36.974772    0.743943    0.718983    0.744257   -0.019704   -0.001291   -0.000981
   37.876595    0.749194    0.734668    0.756902   -0.004380   -0.000458   -0.005456
   38.778419    0.747712    0.751283    0.751759   -0.011792    0.012010   -0.004667
   39.680243    0.735385    0.764955    0.759993    0.001030   -0.001897    0.005554
   40.582067    0.762528    0.758890    0.765604   -0.003084    0.007257   -0.001527
   41.483890    0.771329    0.772070    0.776424   -0.005202    0.003918   -0.004076
   42.385714    0.780209    0.785495    0.781733   -0.006688   -0.002961    0.006635
   43.287538    0.784419    0.786450    0.785733   -0.003847   -0.003524   -0.000805
   44.189361    0.792061    0.790765    0.795396   -0.003667   -0.000437    0.001482
   45.091185    0.788488    0.789813    0.797551    0.002849   -0.001772   -0.000956
   45.993009    0.800144    0.787516    0.803155   -0.001571   -0.004590   -0.001429
   46.894832    0.801694    0.798484    0.798218   -0.002218    0.000183   -0.001324
   47.796656    0.810949    0.795298    0.801568    0.000295   -0.001814   -0.002123
   48.698480    0.811191    0.806980    0.811238   -0.002495    0.000345    0.004750
   49.600304    0.815940    0.809541    0.805430   -0.001573   -0.003058   -0.002595
   50.502127    0.820257    0.813999    0.809541   -0.000940    0.000417   -0.002011
   51.403951    0.819831    0.817017    0.822591    0.001547    0.003753   -0.001710
   52.305775    0.824081    0.828216    0.823376    0.001028   -0.000053    0.001868
   53.207598    0.835881    0.829134    0.829107    0.001139    0.000907   -0.001367
   54.109422    0.838660    0.842063    0.838625    0.000433    0.003799    0.002184
   55.011246    0.846822    0.851229    0.843771    0.000762    0.002831    0.002654
   55.913069    0.852281    0.850473    0.854048   -0.001121   -0.000720    0.002396
   56.814893    0.854699    0.856297    0.859458   -0.000271   -0.000432    0.000277
   57.716717    0.859786    0.860997    0.858708    0.000679    0.002991    0.001059
   58.618541    0.863933    0.861470    0.863463   -0.002092   -0.001362   -0.000081
   59.520364    0.868429    0.861516    0.869506   -0.002220    0.000596   -0.000935
   60.422188    0.871264    0.871025    0.874268   -0.001730    0.000341   -0.000484
   61.324012    0.875441    0.875750    0.877968   -0.001416   -0.002067    0.000605
   62.225835    0.878778    0.879688    0.877374   -0.000808    0.000348   -0.000086
   63.127659    0.881963    0.881812    0.879282   -0.001417   -0.000242   -0.001150
   64.029483    0.883110    0.886891    0.882049    0.000555    0.001460   -0.000796
   64.931306    0.886927    0.885846    0.888830    0.000523    0.001206   -0.000178
   65.833130    0.891442    0.889688    0.892362   -0.001324    0.001813   -0.000776
   66.734954    0.895001    0.893677    0.891210   -0.001510   -0.001068   -0.000652
   67.636778    0.895368    0.896215    0.897812   -0.000502   -0.000669   -0.000957
   68.538601    0.897268    0.898832    0.897995   -0.000173   -0.000405    0.001125
   69.440425    0.899429    0.898190    0.898292    0.001003   -0.000136    0.000536
   70.342249    0.900158    0.898284    0.902510   -0.000576    0.000198   -0.000256
   71.244072    0.901551    0.900993    0.902420    0.000205    0.000916   -0.000112
   72.145896    0.904887    0.904915    0.905620   -0.000170    0.000117   -0.000261
   73.047720    0.907247    0.909012    0.906083   -0.000999   -0.000938   -0.000505
   73.949544    0.910159    0.908572    0.907589   -0.000286   -0.001239    0.001076
   74.851367    0.910818    0.911028    0.908559    0.000860   -0.000112    0.000251
   75.753191    0.911503    0.913597    0.912166    0.000233   -0.000180    0.001066
   76.655015    0.916335    0.915386    0.915151    0.000503   -0.000378    0.000341
   77.556838    0.918504    0.919071    0.917924   -0.001155    0.000628   -0.000337
   78.458662    0.921403    0.920963    0.922092    0.000237   -0.000312   -0.000270
   79.360486    0.923169    0.922552    0.923219   -0.000465    0.000842    0.000757
   80.262309    0.924116    0.925104    0.923525    0.000042    0.001269    0.000300
   81.164133    0.925020    0.925338    0.924437   -0.000165    0.000534    0.000768
   82.065957    0.926236    0.925779    0.924416   -0.000261    0.000284    0.000255
   82.967781    0.926008    0.926517    0.925490   -0.000093   -0.000924    0.000302
   83.869604    0.927414    0.926652    0.926527    0.000067    0.000110   -0.000204
   84.771428    0.928375    0.927720    0.928737   -0.000171   -0.000285    0.000286
   85.673252    0.929653    0.929083    0.929149   -0.000156   -0.000231    0.000016
   86.575075    0.929640    0.931230    0.931038   -0.000237   -0.000107   -0.000559
   87.476899    0.930463    0.932138    0.930976   -0.000507    0.000197   -0.000057
   88.378723    0.933296    0.932759    0.932622    0.000506    0.000414   -0.000135
   89.280546    0.933655    0.933771    0.933687   -0.000057    0.000616   -0.000108
   90.182370    0.935926    0.935648    0.935560    0.000118    0.000367   -0.000239
   91.084194    0.937369    0.936993    0.937331    0.000099   -0.000231    0.000501
   91.986018    0.938560    0.938629    0.938369    0.000317    0.000114   -0.000072
   92.887841    0.939752    0.940358    0.939884   -0.000036   -0.000304   -0.000222
   93.789665    0.941118    0.940566    0.940187    0.000272    0.000095   -0.000044
   94.691489    0.941886    0.941846    0.942436   -0.000149   -0.000195    0.000213
   95.593312    0.942981    0.942933    0.943408    0.000382    0.000138    0.000166
   96.495136    0.944543    0.944418    0.944887    0.000176    0.000241   -0.000199
   97.396960    0.945124    0.945109    0.945348    0.000124    0.000075    0.000011
   98.298783    0.946102    0.946072    0.945769    0.000271    0.000066    0.000299
   99.200607    0.946082    0.946999    0.946989   -0.000014    0.000183    0.000333
  100.102431    0.947284    0.947294    0.947549    0.000264    0.000064   -0.000212
  101.004255    0.948293    0.948649    0.948483    0.000432    0.000006    0.000021
  101.906078    0.949547    0.949378    0.950054    0.000147   -0.000031    0.000018
  102.807902    0.951328    0.950945    0.951298   -0.000069   -0.000316    0.000041
  103.709726    0.952134    0.951889    0.951836    0.000049   -0.000033    0.000265
  104.611549    0.952076    0.952595    0.953019   -0.000207   -0.000005   -0.000118
  105.513373    0.953113    0.953352    0.952850   -0.000435   -0.000067   -0.000159
  106.415197    0.953143    0.953297    0.953390    0.000147   -0.000169   -0.000424
  107.317020    0.953683    0.954098    0.954027   -0.000187    0.000308   -0.000090
  108.218844    0.954562    0.954955    0.955028    0.000062    0.000083   -0.000270
  109.120668    0.955618    0.955931    0.955843    0.000114   -0.000215   -0.000090
  110.022492    0.956499    0.956354    0.956533    0.000183    0.000241    0.000165
  110.924315    0.956708    0.956729    0.956730    0.000057   -0.000009   -0.000131
  111.826139    0.957059    0.957806    0.957027    0.000013   -0.000016    0.000120
  112.727963    0.957803    0.957684    0.957551    0.000031    0.000044   -0.000105
  113.629786    0.958617    0.958701    0.958392    0.000076    0.000040   -0.000174
  114.531610    0.959385    0.959218    0.959309    0.000177    0.000131   -0.000007
  115.433434    0.959842    0.960463    0.960134   -0.000062    0.000048    0.000120
  116.335257    0.960529    0.960967    0.960870    0.000273   -0.000054   -0.000164
  117.237081    0.961256    0.961204    0.960972    0.000045   -0.000237    0.000170
  118.138905    0.961622    0.961577    0.961426    0.000084   -0.000042   -0.000013
  119.040729    0.961678    0.961897    0.961910   -0.000223    0.000106   -0.000041
  119.942552    0.962206    0.962275    0.962554   -0.000109    0.000137   -0.000088
  120.844376    0.962571    0.962914    0.962941    0.000126   -0.000002   -0.000041
  121.746200    0.963227    0.963154    0.963353   -0.000050   -0.000071   -0.000019
  122.648023    0.963717    0.963491    0.963617   -0.000081    0.000001   -0.000127
  123.549847    0.963973    0.964192    0.963894    0.000138   -0.000021   -0.000103
  124.451671    0.964274    0.964609    0.964232    0.000018    0.000026    0.000080
  125.353494    0.964897    0.964781    0.964763    0.000054    0.000018    0.000048
  126.255318    0.965290    0.965326    0.965002   -0.000044    0.000065    0.000060
  127.157142    0.965910    0.965920    0.965659    0.000037   -0.000019    0.000022
  128.058966    0.966026    0.966081    0.965969    0.000055    0.000063    0.000095
  128.960789    0.966009    0.966064    0.965824    0.000025   -0.000080   -0.000001
  129.862613    0.966135    0.966289    0.965896    0.000042    0.000000    0.000057
  130.764437    0.966729    0.966908    0.966616   -0.000001   -0.000017    0.000087
  131.666260    0.967428    0.967487    0.967224    0.000083   -0.000013    0.000080
  132.568084    0.967918    0.968191    0.968114    0.000060    0.000093    0.000007
  133.469908    0.968461    0.968721    0.968601    0.000068    0.000088    0.000016
  134.371732    0.968904    0.969221    0.969245    0.000016    0.000048   -0.000062
  135.273555    0.969060    0.969312    0.969350   -0.000027    0.000003   -0.000077
  136.175379    0.969646    0.969725    0.969786   -0.000068    0.000114   -0.000089
  137.077203    0.970497    0.970496    0.970483   -0.000017   -0.000068    0.000052
  137.979026    0.971263    0.971204    0.971256   -0.000024   -0.000030   -0.000021
  138.880850    0.971850    0.971826    0.971830   -0.000056   -0.000033    0.000002
  139.782674    0.972393    0.972483    0.972342    0.000017   -0.000001   -0.000038
  140.684497    0.972795    0.972964    0.972862   -0.000033    0.000026   -0.000047
  141.586321    0.973261    0.973378    0.973306    0.000052   -0.000010   -0.000004
  142.488145    0.973642    0.973706    0.973777    0.000076    0.000035    0.000008
  143.389969    0.974009    0.974165    0.974169   -0.000034   -0.000015    0.000037
  144.291792    0.974457    0.974391    0.974530    0.000003    0.000003   -0.000020
  145.193616    0.974874    0.974855    0.974866   -0.000035   -0.000030    0.000020
  146.095440    0.975037    0.975007    0.975062    0.000008   -0.000021   -0.000008
  146.997263    0.975150    0.975194    0.975178    0.000028    0.000029    0.000010
  147.899087    0.975186    0.975217    0.975263    0.000065    0.000001    0.000053
  148.800911    0.975299    0.975330    0.975249   -0.000008   -0.000069    0.000006
  149.702734    0.975683    0.975746    0.975680    0.000040    0.000014    0.000008
  150.604558    0.976396    0.976416    0.976390    0.000022    0.000006   -0.000003
  151.506382    0.976926    0.976951    0.976936    0.000016    0.000004   -0.000001
  152.408206    0.977368    0.977393    0.977385    0.000014    0.000003   -0.000001
  153.310029    0.977768    0.977792    0.977789    0.000012    0.000002   -0.000001
  154.211853    0.978139    0.978162    0.978163    0.000010    0.000002   -0.000001
  155.113677    0.978489    0.978512    0.978516    0.000009    0.000002   -0.000001
  156.015500    0.978823    0.978845    0.978851    0.000008    0.000001   -0.000001
  156.917324    0.979143    0.979164    0.979173    0.000007    0.000001   -0.000001
  157.819148    0.979451    0.979471    0.979482    0.000006    0.000001   -0.000001
  158.720971    0.979749    0.979767    0.979780    0.000006    0.000001   -0.000001
  159.622795    0.980037    0.980054    0.980069    0.000005    0.000001   -0.000001
  160.524619    0.980316    0.980333    0.980349    0.000005    0.000001   -0.000001
  161.426443    0.980587    0.980603    0.980620    0.000004    0.000001   -0.000001
  162.328266    0.980850    0.980866    0.980884    0.000004    0.000001   -0.000001
  163.230090    0.981107    0.981122    0.981141    0.000004    0.000001   -0.000001
  164.131914    0.981357    0.981371    0.981392    0.000003    0.000000   -0.000001
  165.033737    0.981601    0.981615    0.981636    0.000003    0.000000   -0.000001
  165.935561    0.981839    0.981852    0.981874    0.000003    0.000000   -0.000001
  166.837385    0.982071    0.982084    0.982106    0.000002    0.000000   -0.000001
  167.739208    0.982298    0.982310    0.982333    0.000002    0.000000   -0.000001
  168.641032    0.982520    0.982531    0.982555    0.000002    0.000000   -0.000001
  169.542856    0.982736    0.982748    0.982772    0.000002    0.000000   -0.000001
  170.444680    0.982949    0.982959    0.982984    0.000001    0.000000   -0.000001
  171.346503    0.983156    0.983167    0.983192    0.000001    0.000000   -0.000001
  172.248327    0.983359    0.983369    0.983395    0.000001    0.000000   -0.000001
  173.150151    0.983559    0.983568    0.983594    0.000001    0.000000   -0.000001
  174.051974    0.983754    0.983763    0.983789    0.000001    0.000000   -0.000001
  174.953798    0.983945    0.983953    0.983981    0.000000    0.000000   -0.000001
  175.855622    0.984132    0.984140    0.984168    0.000000    0.000000   -0.000001
  176.757445    0.984316    0.984324    0.984352    0.000000    0.000000   -0.000001
  177.659269    0.984496    0.984504    0.984532    0.000000    0.000000   -0.000001
  178.561093    0.984673    0.984680    0.984708   -0.000000    0.000000   -0.000001
  179.462917    0.984846    0.984853    0.984882   -0.000000    0.000000   -0.000001
  180.364740    0.985016    0.985023    0.985052   -0.000000    0.000000   -0.000001
 
 The outermost node in the dielectric function lies at epsilon=  -1.0


--------------------------------------------------------------------------------------------------------


    OPTICS:  cpu time   57.8659: real time   58.0596
    4ORBIT:  cpu time    0.0000: real time    0.0000

 total amount of memory used by VASP MPI-rank0  2158073. kBytes
=======================================================================

   base      :      30000. kBytes
   nonlr-proj:      74033. kBytes
   fftplans  :       7389. kBytes
   grid      :      41776. kBytes
   one-center:       1103. kBytes
   HF        :        387. kBytes
   wavefun   :      19218. kBytes
   2eintegral:          0. kBytes
   fockhandle:          0. kBytes
   response  :    1984167. kBytes
   cacher    :          0. kBytes
 
  
  
 General timing and accounting informations for this job:
 ========================================================
  
                  Total CPU time used (sec):    49485.207
                            User time (sec):    48559.390
                          System time (sec):      925.816
                         Elapsed time (sec):    49632.533
  
                   Maximum memory used (kb):    14385520.
                   Average memory used (kb):           0.
  
                          Minor page faults:    144164427
                          Major page faults:            0
                 Voluntary context switches:       240139
