 DBCSR| Multiplication driver                                               BLAS
 DBCSR| Multrec recursion limit                                              512
 DBCSR| Multiplication stack size                                           1000
 DBCSR| Maximum elements for images                                    UNLIMITED
 DBCSR| Multiplicative factor virtual images                                   1
 DBCSR| Multiplication size stacks                                             3
 DBCSR| Number of 3D layers                                               SINGLE
 DBCSR| Use MPI memory allocation                                              T
 DBCSR| Use RMA algorithm                                                      F
 DBCSR| Use Communication thread                                               T
 DBCSR| Communication thread load                                             87


  **** **** ******  **  PROGRAM STARTED AT               2024-03-16 15:35:32.495
 ***** ** ***  *** **   PROGRAM STARTED ON                                  tc23
 **    ****   ******    PROGRAM STARTED BY                              fambrosi
 ***** **    ** ** **   PROGRAM PROCESS ID                                 14602
  **** **  *******  **  PROGRAM STARTED IN          /scratch/fambrosi.55140.tccw

 CP2K| version string:                                          CP2K version 6.1
 CP2K| source code revision number:                                    svn:18464
 CP2K| cp2kflags: libint fftw3 libxc parallel mpi3 scalapack has_no_shared_glibc
 CP2K|             libderiv_max_am1=5 libint_max_am=6 max_contr=4 mkl
 CP2K| is freely available from                            https://www.cp2k.org/
 CP2K| Program compiled at                         Mon Jun 25 12:26:44 CEST 2018
 CP2K| Program compiled on                                                  tccw
 CP2K| Program compiled for                     Linux-x86-64-intel.MPI-OPENMP.O2
 CP2K| Data directory path                           /home/edoardo/cp2k-6.1/data
 CP2K| Input file name        /home/fambrosi/hydroxyl/test-koopman/anion/gga4/r/
 
 GLOBAL| Force Environment number                                              1
 GLOBAL| Basis set file name               /usr/local/cp2k-6.1/data/BASIS_MOLOPT
 GLOBAL| Potential file name             /usr/local/cp2k-6.1/data/GTH_POTENTIALS
 GLOBAL| MM Potential file name                                     MM_POTENTIAL
 GLOBAL| Coordinate file name                                      __STD_INPUT__
 GLOBAL| Method name                                                        CP2K
 GLOBAL| Project name                                               water+I-.dyn
 GLOBAL| Preferred FFT library                                             FFTW3
 GLOBAL| Preferred diagonalization lib.                                       SL
 GLOBAL| Run type                                                         ENERGY
 GLOBAL| All-to-all communication in single precision                          F
 GLOBAL| FFTs using library dependent lengths                                  T
 GLOBAL| Global print level                                                  LOW
 GLOBAL| Total number of message passing processes                            64
 GLOBAL| Number of threads for this process                                    1
 GLOBAL| This output is from process                                           0
 GLOBAL| CPU model name :  Intel(R) Xeon(R) CPU E5-2683 v4 @ 2.10GHz

 MEMORY| system memory details [Kb]
 MEMORY|                        rank 0           min           max       average
 MEMORY| MemTotal            264564380     264564380     264564496     264564438
 MEMORY| MemFree              33263116      33263116      73629352      53446234
 MEMORY| Buffers                196772        185620        196772        191196
 MEMORY| Cached              221141644     181387296     221141644     201264470
 MEMORY| Slab                  6357732       5771884       6357732       6064808
 MEMORY| SReclaimable          6282848       5696112       6282848       5989480
 MEMORY| MemLikelyFree       260884380     260884380     260898380     260891380

 
 GENERATE|  Preliminary Number of Bonds generated:                             0
 GENERATE|  Achieved consistency in connectivity generation.

 *******************************************************************************
 *******************************************************************************
 **                                                                           **
 **     #####                         ##              ##                      **
 **    ##   ##            ##          ##              ##                      **
 **   ##     ##                       ##            ######                    **
 **   ##     ##  ##   ##  ##   #####  ##  ##   ####   ##    #####    #####    **
 **   ##     ##  ##   ##  ##  ##      ## ##   ##      ##   ##   ##  ##   ##   **
 **   ##  ## ##  ##   ##  ##  ##      ####     ###    ##   ######   ######    **
 **    ##  ###   ##   ##  ##  ##      ## ##      ##   ##   ##       ##        **
 **     #######   #####   ##   #####  ##  ##  ####    ##    #####   ##        **
 **           ##                                                    ##        **
 **                                                                           **
 **                                                ... make the atoms dance   **
 **                                                                           **
 **            Copyright (C) by CP2K developers group (2000 - 2018)           **
 **                                                                           **
 *******************************************************************************


 TOTAL NUMBERS AND MAXIMUM NUMBERS

  Total number of            - Atomic kinds:                                   2
                             - Atoms:                                        191
                             - Shell sets:                                  1146
                             - Shells:                                      1338
                             - Primitive Cartesian functions:               1528
                             - Cartesian basis functions:                   4081
                             - Spherical basis functions:                   3634

  Maximum angular momentum of- Orbital basis functions:                        3
                             - Local part of the GTH pseudopotential:          2
                             - Non-local part of the GTH pseudopotential:      0


 SCF PARAMETERS         Density guess:                                   RESTART
                        --------------------------------------------------------
                        max_scf:                                              50
                        max_scf_history:                                       0
                        max_diis:                                              4
                        --------------------------------------------------------
                        eps_scf:                                        1.00E-05
                        eps_scf_history:                                0.00E+00
                        eps_diis:                                       1.00E-01
                        eps_eigval:                                     1.00E-05
                        --------------------------------------------------------
                        level_shift [a.u.]:                                 0.00
                        --------------------------------------------------------
                        Outer loop SCF in use 
                        No variables optimised in outer loop
                        eps_scf                                         1.00E-05
                        max_scf                                               50
                        No outer loop optimization
                        step_size                                       5.00E-01

 Spin 1

 Number of electrons:                                                        256
 Number of occupied orbitals:                                                256
 Number of molecular orbitals:                                               256

 Spin 2

 Number of electrons:                                                        255
 Number of occupied orbitals:                                                255
 Number of molecular orbitals:                                               255

 Number of orbital functions:                                               3634
 Number of independent orbital functions:                                   3634

 Extrapolation method: initial_guess

 *** WARNING in qs_initial_guess.F:263 :: User requested to restart the    ***
 *** wavefunction from the file named: water+I-.dyn-RESTART.wfn. This file ***
 *** does not exist. Please check the existence of the file or change      ***
 *** properly the value of the keyword WFN_RESTART_FILE_NAME. Calculation  ***
 *** continues using ATOMIC GUESS.                                         ***



 SCF WAVEFUNCTION OPTIMIZATION

  ----------------------------------- OT ---------------------------------------
  Minimizer      : DIIS                : direct inversion
                                         in the iterative subspace
                                         using   7 DIIS vectors
                                         safer DIIS on
  Preconditioner : FULL_SINGLE_INVERSE : inversion of 
                                         H + eS - 2*(Sc)(c^T*H*c+const)(Sc)^T
  Precond_solver : DEFAULT
  stepsize       :    0.08000000                  energy_gap     :    0.08000000
  eps_taylor     :   0.10000E-15                  max_taylor     :             4
  ----------------------------------- OT ---------------------------------------

  Step     Update method      Time    Convergence         Total energy    Change
  ------------------------------------------------------------------------------
     1 OT DIIS     0.80E-01    9.1     0.00926715     -1060.4971602667 -1.06E+03
     2 OT DIIS     0.80E-01    8.5     0.00758973     -1071.7932209497 -1.13E+01
     3 OT DIIS     0.80E-01    8.6     0.00619394     -1083.9773898304 -1.22E+01
     4 OT DIIS     0.80E-01    8.7     0.00487343     -1093.1458601088 -9.17E+00
     5 OT DIIS     0.80E-01    8.8     0.00308283     -1100.3804112073 -7.23E+00
     6 OT DIIS     0.80E-01    8.8     0.00203497     -1102.9782834980 -2.60E+00
     7 OT DIIS     0.80E-01    8.8     0.00152325     -1103.9524616678 -9.74E-01
     8 OT DIIS     0.80E-01    8.5     0.00111548     -1104.6593516545 -7.07E-01
     9 OT DIIS     0.80E-01    8.5     0.00091059     -1104.9182417584 -2.59E-01
    10 OT DIIS     0.80E-01    8.7     0.00068060     -1105.1954689402 -2.77E-01
    11 OT DIIS     0.80E-01    9.0     0.00048760     -1105.2761645565 -8.07E-02
    12 OT DIIS     0.80E-01    8.9     0.00033786     -1105.3913216231 -1.15E-01
    13 OT DIIS     0.80E-01    8.6     0.00025696     -1105.4382782568 -4.70E-02
    14 OT DIIS     0.80E-01    8.4     0.00020502     -1105.4792467188 -4.10E-02
    15 OT DIIS     0.80E-01    8.8     0.00016837     -1105.4946181541 -1.54E-02
    16 OT DIIS     0.80E-01    8.8     0.00012949     -1105.5087288248 -1.41E-02
    17 OT DIIS     0.80E-01    8.9     0.00009964     -1105.5195665934 -1.08E-02
    18 OT DIIS     0.80E-01    8.4     0.00008410     -1105.5268630857 -7.30E-03
    19 OT DIIS     0.80E-01    8.6     0.00006359     -1105.5301195011 -3.26E-03
    20 OT DIIS     0.80E-01    8.6     0.00005318     -1105.5334029377 -3.28E-03
    21 OT DIIS     0.80E-01    8.5     0.00004622     -1105.5352297864 -1.83E-03
    22 OT DIIS     0.80E-01    8.6     0.00003703     -1105.5376557515 -2.43E-03
    23 OT DIIS     0.80E-01    8.6     0.00003447     -1105.5383388050 -6.83E-04
    24 OT DIIS     0.80E-01    8.7     0.00002826     -1105.5399756660 -1.64E-03
    25 OT DIIS     0.80E-01    8.5     0.00002498     -1105.5409634567 -9.88E-04
    26 OT DIIS     0.80E-01    8.4     0.00002293     -1105.5415096007 -5.46E-04
    27 OT DIIS     0.80E-01    8.4     0.00001970     -1105.5423630485 -8.53E-04
    28 OT DIIS     0.80E-01    8.6     0.00001771     -1105.5428225558 -4.60E-04
    29 OT DIIS     0.80E-01    8.6     0.00001584     -1105.5433228436 -5.00E-04
    30 OT DIIS     0.80E-01    8.4     0.00001424     -1105.5436683088 -3.45E-04
    31 OT DIIS     0.80E-01    8.4     0.00001317     -1105.5439480551 -2.80E-04
    32 OT DIIS     0.80E-01    8.4     0.00001194     -1105.5441874124 -2.39E-04
    33 OT DIIS     0.80E-01    8.7     0.00001103     -1105.5444166703 -2.29E-04
    34 OT DIIS     0.80E-01    8.5     0.00001038     -1105.5445568187 -1.40E-04
    35 OT DIIS     0.80E-01    8.6     0.00000981     -1105.5447142618 -1.57E-04

  *** SCF run converged in    35 steps ***


  Electronic density on regular grids:       -510.9999999999        0.0000000001
  Core density on regular grids:              510.9999999998       -0.0000000002
  Total charge density on r-space grids:       -0.0000000001
  Total charge density g-space grids:          -0.0000000001

  Overlap energy of the core charge distribution:               0.00000190354231
  Self energy of the core charge distribution:              -2836.80744583234036
  Core Hamiltonian energy:                                    828.40054322298374
  Hartree energy:                                            1176.60324954076168
  Exchange-correlation energy:                               -274.70698616569257
  Dispersion energy:                                            0.96592306898154

  Total energy:                                             -1105.54471426176360

  outer SCF iter =    1 RMS gradient =   0.98E-05 energy =      -1105.5447142618
  outer SCF loop converged in   1 iterations or   35 steps


  Integrated absolute spin density  :                               1.0963418429
  Ideal and single determinant S**2 :                    0.750000       0.752919

 ENERGY| Total FORCE_EVAL ( QS ) energy (a.u.):            -1105.544714261763602


 -------------------------------------------------------------------------------
 -                                                                             -
 -                                DBCSR STATISTICS                             -
 -                                                                             -
 -------------------------------------------------------------------------------
 COUNTER                                    TOTAL       BLAS       SMM       ACC
 flops    14 x    31 x    31              6834632     100.0%      0.0%      0.0%
 flops    29 x    31 x    31              7134464     100.0%      0.0%      0.0%
 flops    31 x    31 x    31             18410838     100.0%      0.0%      0.0%
 flops    14 x    32 x    31             24692864     100.0%      0.0%      0.0%
 flops    14 x    31 x    32             24692864     100.0%      0.0%      0.0%
 flops    29 x    32 x    31             25776128     100.0%      0.0%      0.0%
 flops    29 x    31 x    32             25776128     100.0%      0.0%      0.0%
 flops    31 x    31 x   442            118933360     100.0%      0.0%      0.0%
 flops    31 x    31 x    32            133033152     100.0%      0.0%      0.0%
 flops    31 x    32 x    31            133033152     100.0%      0.0%      0.0%
 flops    32 x    31 x    31            133033152     100.0%      0.0%      0.0%
 flops   442 x    31 x    31            146967652     100.0%      0.0%      0.0%
 flops   442 x    31 x   442            436052448     100.0%      0.0%      0.0%
 flops    14 x    32 x    32            466092032     100.0%      0.0%      0.0%
 flops    29 x    32 x    32            486539264     100.0%      0.0%      0.0%
 flops    32 x    31 x   442            855881728     100.0%      0.0%      0.0%
 flops    31 x    32 x   442            856758656     100.0%      0.0%      0.0%
 flops    31 x    31 x   456            858903360     100.0%      0.0%      0.0%
 flops    32 x    32 x    31            961271808     100.0%      0.0%      0.0%
 flops    31 x    32 x    32            961271808     100.0%      0.0%      0.0%
 flops    32 x    31 x    32            961271808     100.0%      0.0%      0.0%
 flops   456 x    31 x    31           1061359152     100.0%      0.0%      0.0%
 flops   442 x    32 x    31           1061959808     100.0%      0.0%      0.0%
 flops   442 x    31 x    32           1061959808     100.0%      0.0%      0.0%
 flops   456 x    31 x   442           3149048448     100.0%      0.0%      0.0%
 flops   442 x    31 x   456           3149048448     100.0%      0.0%      0.0%
 flops    14 x    14 x    31           3626108192     100.0%      0.0%      0.0%
 flops    14 x    29 x    31           3775095184     100.0%      0.0%      0.0%
 flops    29 x    14 x    31           3776907568     100.0%      0.0%      0.0%
 flops    29 x    29 x    31           4012848320     100.0%      0.0%      0.0%
 flops    32 x    31 x   456           6180937728     100.0%      0.0%      0.0%
 flops    31 x    32 x   456           6187270656     100.0%      0.0%      0.0%
 flops   442 x    32 x   442           6751779840     100.0%      0.0%      0.0%
 flops   456 x    31 x    32           7669175808     100.0%      0.0%      0.0%
 flops   456 x    32 x    31           7669175808     100.0%      0.0%      0.0%
 flops    32 x    32 x   442          14276161536     100.0%      0.0%      0.0%
 flops    14 x    31 x    14          14970328296     100.0%      0.0%      0.0%
 flops    29 x    31 x    14          15715282352     100.0%      0.0%      0.0%
 flops    14 x    31 x    29          15715282352     100.0%      0.0%      0.0%
 flops    29 x    31 x    29          16445169664     100.0%      0.0%      0.0%
 flops    32 x    32 x    32          17314283520     100.0%      0.0%      0.0%
 flops   442 x    32 x    32          17696067584     100.0%      0.0%      0.0%
 flops   456 x    31 x   456          22741544448     100.0%      0.0%      0.0%
 flops   442 x    32 x   456          48759459840     100.0%      0.0%      0.0%
 flops   456 x    32 x   442          48759459840     100.0%      0.0%      0.0%
 flops    14 x    14 x    32          56146191360     100.0%      0.0%      0.0%
 flops    14 x    29 x    32          58453086720     100.0%      0.0%      0.0%
 flops    29 x    14 x    32          58481149440     100.0%      0.0%      0.0%
 flops    29 x    29 x    32          62134425600     100.0%      0.0%      0.0%
 flops    32 x    32 x   456         103098433536     100.0%      0.0%      0.0%
 flops   456 x    32 x    32         127796035584     100.0%      0.0%      0.0%
 flops    14 x    32 x    14         230193100032     100.0%      0.0%      0.0%
 flops    29 x    32 x    14         241647977984     100.0%      0.0%      0.0%
 flops    14 x    32 x    29         241647977984     100.0%      0.0%      0.0%
 flops    29 x    32 x    29         252871180288     100.0%      0.0%      0.0%
 flops   456 x    32 x   456         352127139840     100.0%      0.0%      0.0%
 flops inhomo. stacks                           0       0.0%      0.0%      0.0%
 flops total                         2.083765E+12     100.0%      0.0%      0.0%
 flops max/rank                     32.937487E+09     100.0%      0.0%      0.0%
 matmuls inhomo. stacks                         0       0.0%      0.0%      0.0%
 matmuls total                           55951464     100.0%      0.0%      0.0%
 number of processed stacks               1140544     100.0%      0.0%      0.0%
 average stack size                                    49.1       0.0       0.0
 marketing flops                     2.338195E+12
 -------------------------------------------------------------------------------
 # multiplications                           1549
 max memory usage/rank             278.450176E+06
 # max total images/rank                        1
 # max 3D layers                                1
 # MPI messages exchanged                 1387904
 MPI messages size (bytes):
  total size                       238.539784E+09
  min size                           0.000000E+00
  max size                           1.663488E+06
  average size                     171.870516E+03
 MPI breakdown and total messages size (bytes):
             size <=      128                2576                        0
       128 < size <=     8192              709744               5791555448
      8192 < size <=    32768                   0                        0
     32768 < size <=   131072              574784              66709832224
    131072 < size <=  4194304              100800             166037588640
   4194304 < size <= 16777216                   0                        0
  16777216 < size                               0                        0
 -------------------------------------------------------------------------------
 
 MEMORY| Estimated peak process memory [MiB]                                 266

 -------------------------------------------------------------------------------
 -                                                                             -
 -                         MESSAGE PASSING PERFORMANCE                         -
 -                                                                             -
 -------------------------------------------------------------------------------

 ROUTINE             CALLS      AVE VOLUME [Bytes]
 MP_Group               97
 MP_Bcast             5607                 173492.
 MP_Allreduce        22485                    291.
 MP_Sync                74
 MP_Alltoall          8743                1304791.
 MP_ISendRecv        17892                  47520.
 MP_Wait            149222
 MP_comm_split          70
 MP_ISend            55830                  99268.
 MP_IRecv            55830                  99469.
 MP_Recv                28                 930304.
 MP_Memory           62216
 -------------------------------------------------------------------------------


 -------------------------------------------------------------------------------
 -                                                                             -
 -                           R E F E R E N C E S                               -
 -                                                                             -
 -------------------------------------------------------------------------------
 
 CP2K version 6.1, the CP2K developers group (2018).
 CP2K is freely available from https://www.cp2k.org/ .

 Lehtola, S; Steigemann, C; Oliveira, MJT; Marques, MAL. 
 SoftwareX, 7, 1-5 (2018). 
 Recent developments in libxc - A comprehensive library of functionals
 for density functional theory.
 http://dx.doi.org/10.1016/j.softx.2017.11.002


 Schuett, Ole; Messmer, Peter; Hutter, Juerg; VandeVondele, Joost. 
 Electronic Structure Calculations on Graphics Processing Units, John Wiley & Sons, Ltd, 173-190 (2016). 
 GPU-Accelerated Sparse Matrix-Matrix Multiplication for Linear Scaling Density Functional Theory.
 http://dx.doi.org/10.1002/9781118670712.ch8


 Borstnik, U; VandeVondele, J; Weber, V; Hutter, J. 
 PARALLEL COMPUTING, 40 (5-6), 47-58 (2014). 
 Sparse matrix multiplication: The distributed block-compressed sparse
 row library.
 http://dx.doi.org/10.1016/j.parco.2014.03.012


 Hutter, J; Iannuzzi, M; Schiffmann, F; VandeVondele, J. 
 WILEY INTERDISCIPLINARY REVIEWS-COMPUTATIONAL MOLECULAR SCIENCE, 4 (1), 15-25 (2014). 
 CP2K: atomistic simulations of condensed matter systems.
 http://dx.doi.org/10.1002/wcms.1159


 Sabatini, R; Gorni, T; de Gironcoli, S. 
 Phys. Rev. B, 87 (4), 041108(R) (2013). 
 Nonlocal van der Waals density functional made simple and efficient.
 http://dx.doi.org/10.1103/PhysRevB.87.041108


 Marques, MAL; Oliveira, MJT; Burnus, T. 
 COMPUTER PHYSICS COMMUNICATIONS, 183 (10), 2272-2281 (2012). 
 LIBXC: A library of exchange and correlation functionals for density
 functional theory.
 http://dx.doi.org/10.1016/j.cpc.2012.05.007


 Roman-Perez, G; Soler, JM. 
 Phys. Rev. Lett., 103 (9), 096102 (2009). 
 Efficient Implementation of a van der Waals Density Functional:
 Application to Double-Wall Carbon Nanotubes.
 http://dx.doi.org/10.1103/PhysRevLett.103.096102


 VandeVondele, J; Hutter, J. 
 JOURNAL OF CHEMICAL PHYSICS, 127 (11), 114105 (2007). 
 Gaussian basis sets for accurate calculations on molecular systems in
 gas and condensed phases.
 http://dx.doi.org/10.1063/1.2770708


 Krack, M. 
 THEORETICAL CHEMISTRY ACCOUNTS, 114 (1-3), 145-152 (2005). 
 Pseudopotentials for H to Kr optimized for gradient-corrected
 exchange-correlation functionals.
 http://dx.doi.org/10.1007/s00214-005-0655-y


 VandeVondele, J; Krack, M; Mohamed, F; Parrinello, M; Chassaing, T;
 Hutter, J. COMPUTER PHYSICS COMMUNICATIONS, 167 (2), 103-128 (2005). 
 QUICKSTEP: Fast and accurate density functional calculations using a
 mixed Gaussian and plane waves approach.
 http://dx.doi.org/10.1016/j.cpc.2004.12.014


 Frigo, M; Johnson, SG. 
 PROCEEDINGS OF THE IEEE, 93 (2), 216-231 (2005). 
 The design and implementation of FFTW3.
 http://dx.doi.org/10.1109/JPROC.2004.840301


 VandeVondele, J; Hutter, J. 
 JOURNAL OF CHEMICAL PHYSICS, 118 (10), 4365-4369 (2003). 
 An efficient orbital transformation method for electronic structure
 calculations.
 http://dx.doi.org/10.1063/1.1543154


 Hartwigsen, C; Goedecker, S; Hutter, J. 
 PHYSICAL REVIEW B, 58 (7), 3641-3662 (1998). 
 Relativistic separable dual-space Gaussian pseudopotentials from H to Rn.
 http://dx.doi.org/10.1103/PhysRevB.58.3641


 Lippert, G; Hutter, J; Parrinello, M. 
 MOLECULAR PHYSICS, 92 (3), 477-487 (1997). 
 A hybrid Gaussian and plane wave density functional scheme.
 http://dx.doi.org/10.1080/002689797170220


 Goedecker, S; Teter, M; Hutter, J. 
 PHYSICAL REVIEW B, 54 (3), 1703-1710 (1996). 
 Separable dual-space Gaussian pseudopotentials.
 http://dx.doi.org/10.1103/PhysRevB.54.1703


 -------------------------------------------------------------------------------
 -                                                                             -
 -                                T I M I N G                                  -
 -                                                                             -
 -------------------------------------------------------------------------------
 SUBROUTINE                       CALLS  ASD         SELF TIME        TOTAL TIME
                                MAXIMUM       AVERAGE  MAXIMUM  AVERAGE  MAXIMUM
 CP2K                                 1  1.0    0.091    0.141  306.411  306.413
 qs_energies                          1  2.0    0.000    0.000  305.509  305.510
 scf_env_do_scf                       1  3.0    0.000    0.000  302.995  302.995
 scf_env_do_scf_inner_loop           35  4.0    0.002    0.003  297.525  297.536
 dbcsr_multiply_generic            1549 10.1    0.094    0.099  184.200  184.398
 qs_scf_new_mos                      35  5.0    0.000    0.000  176.051  176.220
 qs_scf_loop_do_ot                   35  6.0    0.000    0.000  176.051  176.220
 ot_scf_mini                         35  7.0    0.002    0.002  166.986  167.133
 ot_mini                             35  8.0    0.000    0.001  114.451  114.638
 qs_ot_get_derivative                70  9.0    0.001    0.001  102.200  102.394
 multiply_cannon                   1549 11.1    0.238    0.256   92.747   94.419
 qs_ks_update_qs_env                 36  5.0    0.000    0.001   91.931   92.039
 rebuild_ks_matrix                   35  6.0    0.000    0.000   91.837   91.945
 qs_ks_build_kohn_sham_matrix        35  7.0    0.006    0.007   91.837   91.945
 mp_deallocate_d                  17912 14.3   85.640   86.222   85.640   86.222
 qs_ot_get_derivative_diag           68 10.0    0.002    0.002   77.436   77.633
 dbcsr_destroy                    17543 11.8    0.059    0.061   69.341   69.740
 make_m2s                          3098 11.1    0.097    0.101   67.148   67.565
 mp_deallocate_i                  13198 14.2   60.765   61.294   60.765   61.294
 pw_transfer                       3511  9.9    0.169    0.208   56.597   58.926
 fft_wrap_pw1pw2                   3126 10.9    0.021    0.025   56.054   58.545
 dbcsr_data_release              104231 13.7    0.396    0.645   55.011   55.559
 fft3d_ps                          3126 12.9   13.609   20.615   47.855   52.924
 qs_vxc_create                       35  8.0    0.005    0.017   52.414   52.725
 fft_wrap_pw1pw2_400                775 11.9    3.082    5.129   45.727   47.279
 make_images                       3098 12.1    0.128    0.135   41.089   41.439
 mp_alltoall_z22v                  3126 14.9   31.077   41.029   31.077   41.029
 xc_vxc_pw_create                    35  9.0    0.477    0.701   39.346   39.640
 qs_rho_update_rho                   36  5.0    0.000    0.000   33.128   33.157
 calculate_rho_elec                  72  6.0   12.239   12.591   33.128   33.157
 setup_buffer_matrices             3098 12.1    0.041    0.042   31.124   31.362
 dbcsr_create_new                 18188 12.5    0.093    0.096   29.433   29.785
 dbcsr_make_index_exist           18188 13.5    0.044    0.045   28.786   29.060
 sum_up_and_integrate                35  8.0    0.169    0.240   27.788   28.123
 integrate_v_rspace                  70  9.0   11.320   11.639   27.619   28.007
 qs_ot_get_p                         72  7.9    0.001    0.001   27.059   27.414
 dbcsr_make_images_dense           2780 12.3    0.039    0.040   25.918   26.050
 yz_to_x                           1337 13.7    1.030    1.425   16.890   22.284
 x_to_yz                           1647 14.1    2.014    4.239   17.222   20.853
 xc_rho_set_and_dset_create          35 10.0    0.298    0.433   19.206   20.290
 rs_pw_transfer                     569  9.5    0.006    0.007   17.566   18.155
 density_rs2pw                       72  7.0    0.004    0.008   17.446   17.871
 dbcsr_special_finalize            3098 13.1    0.013    0.013   16.595   17.004
 quick_finalize                    3471 13.9    0.019    0.022   16.576   16.984
 qs_ot_p2m_diag                      70  9.0    0.009    0.011   16.591   16.672
 mp_waitall_1                    142952 13.3   14.560   16.314   14.560   16.314
 qs_ot_get_orbitals                  70  8.0    0.000    0.000   15.916   16.032
 buffer_matrices_ensure_size       3098 12.1    0.198    0.269   14.685   15.151
 potential_pw2rs                     70 10.0    0.018    0.021   14.570   15.113
 dbcsr_switch_data_area           10049 13.8    0.012    0.012   13.823   14.045
 calculate_dispersion_nonloc         35  9.0    1.053    1.447   13.063   13.850
 ot_diis_step                        35  9.0    0.003    0.003   11.903   11.903
 apply_preconditioner_dbcsr          72 10.0    0.000    0.000   11.619   11.872
 apply_single                        72 11.0    0.000    0.000   11.619   11.872
 mp_waitany                        6270 11.5    8.205   10.276    8.205   10.276
 multiply_cannon_metrocomm1       12392 12.1    0.046    0.056    6.878    9.810
 calculate_dm_sparse                 72  7.0    0.000    0.001    9.336    9.358
 fft_wrap_pw1pw2_100               1925 12.0    0.437    0.727    7.869    8.501
 make_images_sizes                 3098 13.1    0.005    0.005    7.172    8.180
 mp_alltoall_i44                   3098 14.1    7.167    8.175    7.167    8.175
 mp_sum_l                          7466 11.2    6.158    6.940    6.158    6.940
 multiply_cannon_metrocomm3       12392 12.1    0.042    0.047    4.204    6.141
 -------------------------------------------------------------------------------

 The number of warnings for this run is : 1
 
 -------------------------------------------------------------------------------
  **** **** ******  **  PROGRAM ENDED AT                 2024-03-16 15:40:39.608
 ***** ** ***  *** **   PROGRAM RAN ON                                      tc23
 **    ****   ******    PROGRAM RAN BY                                  fambrosi
 ***** **    ** ** **   PROGRAM PROCESS ID                                 14602
  **** **  *******  **  PROGRAM STOPPED IN          /scratch/fambrosi.55140.tccw
