 DBCSR| Multiplication driver                                               BLAS
 DBCSR| Multrec recursion limit                                              512
 DBCSR| Multiplication stack size                                           1000
 DBCSR| Maximum elements for images                                    UNLIMITED
 DBCSR| Multiplicative factor virtual images                                   1
 DBCSR| Multiplication size stacks                                             3
 DBCSR| Number of 3D layers                                               SINGLE
 DBCSR| Use MPI memory allocation                                              T
 DBCSR| Use RMA algorithm                                                      F
 DBCSR| Use Communication thread                                               T
 DBCSR| Communication thread load                                             87


  **** **** ******  **  PROGRAM STARTED AT               2024-03-14 23:27:28.386
 ***** ** ***  *** **   PROGRAM STARTED ON                                  tc23
 **    ****   ******    PROGRAM STARTED BY                              fambrosi
 ***** **    ** ** **   PROGRAM PROCESS ID                                 19408
  **** **  *******  **  PROGRAM STARTED IN          /scratch/fambrosi.55032.tccw

 CP2K| version string:                                          CP2K version 6.1
 CP2K| source code revision number:                                    svn:18464
 CP2K| cp2kflags: libint fftw3 libxc parallel mpi3 scalapack has_no_shared_glibc
 CP2K|             libderiv_max_am1=5 libint_max_am=6 max_contr=4 mkl
 CP2K| is freely available from                            https://www.cp2k.org/
 CP2K| Program compiled at                         Mon Jun 25 12:26:44 CEST 2018
 CP2K| Program compiled on                                                  tccw
 CP2K| Program compiled for                     Linux-x86-64-intel.MPI-OPENMP.O2
 CP2K| Data directory path                           /home/edoardo/cp2k-6.1/data
 CP2K| Input file name        /home/fambrosi/hydroxyl/test-koopman/radical/gga5/
 
 GLOBAL| Force Environment number                                              1
 GLOBAL| Basis set file name               /usr/local/cp2k-6.1/data/BASIS_MOLOPT
 GLOBAL| Potential file name             /usr/local/cp2k-6.1/data/GTH_POTENTIALS
 GLOBAL| MM Potential file name                                     MM_POTENTIAL
 GLOBAL| Coordinate file name                                      __STD_INPUT__
 GLOBAL| Method name                                                        CP2K
 GLOBAL| Project name                                               water+I-.dyn
 GLOBAL| Preferred FFT library                                             FFTW3
 GLOBAL| Preferred diagonalization lib.                                       SL
 GLOBAL| Run type                                                         ENERGY
 GLOBAL| All-to-all communication in single precision                          F
 GLOBAL| FFTs using library dependent lengths                                  T
 GLOBAL| Global print level                                                  LOW
 GLOBAL| Total number of message passing processes                            64
 GLOBAL| Number of threads for this process                                    1
 GLOBAL| This output is from process                                           0
 GLOBAL| CPU model name :  Intel(R) Xeon(R) CPU E5-2683 v4 @ 2.10GHz

 MEMORY| system memory details [Kb]
 MEMORY|                        rank 0           min           max       average
 MEMORY| MemTotal            264564380     264564380     264564496     264564438
 MEMORY| MemFree              47263176      47263176     155251404     101257288
 MEMORY| Buffers                190684        190684        192784        191734
 MEMORY| Cached              207517784     102618000     207517784     155067892
 MEMORY| Slab                  6001956       2926196       6001956       4464203
 MEMORY| SReclaimable          5925448       2848540       5925448       4386994
 MEMORY| MemLikelyFree       260897092     260897092     260910728     260903909

 
 GENERATE|  Preliminary Number of Bonds generated:                             0
 GENERATE|  Achieved consistency in connectivity generation.

 *******************************************************************************
 *******************************************************************************
 **                                                                           **
 **     #####                         ##              ##                      **
 **    ##   ##            ##          ##              ##                      **
 **   ##     ##                       ##            ######                    **
 **   ##     ##  ##   ##  ##   #####  ##  ##   ####   ##    #####    #####    **
 **   ##     ##  ##   ##  ##  ##      ## ##   ##      ##   ##   ##  ##   ##   **
 **   ##  ## ##  ##   ##  ##  ##      ####     ###    ##   ######   ######    **
 **    ##  ###   ##   ##  ##  ##      ## ##      ##   ##   ##       ##        **
 **     #######   #####   ##   #####  ##  ##  ####    ##    #####   ##        **
 **           ##                                                    ##        **
 **                                                                           **
 **                                                ... make the atoms dance   **
 **                                                                           **
 **            Copyright (C) by CP2K developers group (2000 - 2018)           **
 **                                                                           **
 *******************************************************************************


 TOTAL NUMBERS AND MAXIMUM NUMBERS

  Total number of            - Atomic kinds:                                   2
                             - Atoms:                                        191
                             - Shell sets:                                  1146
                             - Shells:                                      1338
                             - Primitive Cartesian functions:               1528
                             - Cartesian basis functions:                   4081
                             - Spherical basis functions:                   3634

  Maximum angular momentum of- Orbital basis functions:                        3
                             - Local part of the GTH pseudopotential:          2
                             - Non-local part of the GTH pseudopotential:      0


 SCF PARAMETERS         Density guess:                                   RESTART
                        --------------------------------------------------------
                        max_scf:                                              50
                        max_scf_history:                                       0
                        max_diis:                                              4
                        --------------------------------------------------------
                        eps_scf:                                        1.00E-05
                        eps_scf_history:                                0.00E+00
                        eps_diis:                                       1.00E-01
                        eps_eigval:                                     1.00E-05
                        --------------------------------------------------------
                        level_shift [a.u.]:                                 0.00
                        --------------------------------------------------------
                        Outer loop SCF in use 
                        No variables optimised in outer loop
                        eps_scf                                         1.00E-05
                        max_scf                                               50
                        No outer loop optimization
                        step_size                                       5.00E-01

 Number of electrons:                                                        512
 Number of occupied orbitals:                                                256
 Number of molecular orbitals:                                               256

 Number of orbital functions:                                               3634
 Number of independent orbital functions:                                   3634

 Extrapolation method: initial_guess

 *** WARNING in qs_initial_guess.F:263 :: User requested to restart the    ***
 *** wavefunction from the file named: water+I-.dyn-RESTART.wfn. This file ***
 *** does not exist. Please check the existence of the file or change      ***
 *** properly the value of the keyword WFN_RESTART_FILE_NAME. Calculation  ***
 *** continues using ATOMIC GUESS.                                         ***



 SCF WAVEFUNCTION OPTIMIZATION

  ----------------------------------- OT ---------------------------------------
  Minimizer      : DIIS                : direct inversion
                                         in the iterative subspace
                                         using   7 DIIS vectors
                                         safer DIIS on
  Preconditioner : FULL_SINGLE_INVERSE : inversion of 
                                         H + eS - 2*(Sc)(c^T*H*c+const)(Sc)^T
  Precond_solver : DEFAULT
  stepsize       :    0.08000000                  energy_gap     :    0.08000000
  eps_taylor     :   0.10000E-15                  max_taylor     :             4
  ----------------------------------- OT ---------------------------------------

  Step     Update method      Time    Convergence         Total energy    Change
  ------------------------------------------------------------------------------
     1 OT DIIS     0.80E-01    4.3     0.01888894     -1060.6602636214 -1.06E+03
     2 OT DIIS     0.80E-01    4.0     0.01416204     -1080.5026980882 -1.98E+01
     3 OT DIIS     0.80E-01    4.0     0.01098139     -1090.9313294192 -1.04E+01
     4 OT DIIS     0.80E-01    4.0     0.00653686     -1099.7322717499 -8.80E+00
     5 OT DIIS     0.80E-01    4.0     0.00418812     -1102.6623544366 -2.93E+00
     6 OT DIIS     0.80E-01    4.1     0.00305974     -1104.1446910192 -1.48E+00
     7 OT DIIS     0.80E-01    4.1     0.00228323     -1104.7559008017 -6.11E-01
     8 OT DIIS     0.80E-01    4.0     0.00144252     -1105.2086854027 -4.53E-01
     9 OT DIIS     0.80E-01    4.3     0.00105303     -1105.3700516593 -1.61E-01
    10 OT DIIS     0.80E-01    4.4     0.00074109     -1105.4916550829 -1.22E-01
    11 OT DIIS     0.80E-01    4.1     0.00057223     -1105.5511285275 -5.95E-02
    12 OT DIIS     0.80E-01    4.0     0.00049602     -1105.5846181138 -3.35E-02
    13 OT DIIS     0.80E-01    4.1     0.00032486     -1105.6139283861 -2.93E-02
    14 OT DIIS     0.80E-01    4.0     0.00022695     -1105.6356082234 -2.17E-02
    15 OT DIIS     0.80E-01    4.0     0.00016255     -1105.6467940207 -1.12E-02
    16 OT DIIS     0.80E-01    4.0     0.00012677     -1105.6517045033 -4.91E-03
    17 OT DIIS     0.80E-01    4.0     0.00009604     -1105.6554800993 -3.78E-03
    18 OT DIIS     0.80E-01    4.1     0.00007825     -1105.6572385014 -1.76E-03
    19 OT DIIS     0.80E-01    4.1     0.00006368     -1105.6585093124 -1.27E-03
    20 OT DIIS     0.80E-01    4.2     0.00005166     -1105.6595122365 -1.00E-03
    21 OT DIIS     0.80E-01    4.3     0.00004394     -1105.6601723259 -6.60E-04
    22 OT DIIS     0.80E-01    4.2     0.00003753     -1105.6606906620 -5.18E-04
    23 OT DIIS     0.80E-01    4.1     0.00003304     -1105.6610445469 -3.54E-04
    24 OT DIIS     0.80E-01    4.0     0.00002913     -1105.6613450475 -3.01E-04
    25 OT DIIS     0.80E-01    4.0     0.00002576     -1105.6616010667 -2.56E-04
    26 OT DIIS     0.80E-01    4.2     0.00002332     -1105.6617802155 -1.79E-04
    27 OT DIIS     0.80E-01    4.0     0.00002099     -1105.6619430407 -1.63E-04
    28 OT DIIS     0.80E-01    4.1     0.00001874     -1105.6620897543 -1.47E-04
    29 OT DIIS     0.80E-01    4.1     0.00001713     -1105.6621990502 -1.09E-04
    30 OT DIIS     0.80E-01    4.0     0.00001567     -1105.6622998301 -1.01E-04
    31 OT DIIS     0.80E-01    4.1     0.00001454     -1105.6623839234 -8.41E-05
    32 OT DIIS     0.80E-01    4.2     0.00001347     -1105.6624661510 -8.22E-05
    33 OT DIIS     0.80E-01    4.2     0.00001259     -1105.6625369885 -7.08E-05
    34 OT DIIS     0.80E-01    4.2     0.00001183     -1105.6626021026 -6.51E-05
    35 OT DIIS     0.80E-01    4.3     0.00001112     -1105.6626637329 -6.16E-05
    36 OT DIIS     0.80E-01    4.2     0.00001048     -1105.6627144377 -5.07E-05
    37 OT DIIS     0.80E-01    4.1     0.00000988     -1105.6627645145 -5.01E-05

  *** SCF run converged in    37 steps ***


  Electronic density on regular grids:       -511.9999999999        0.0000000001
  Core density on regular grids:              510.9999999998       -0.0000000002
  Total charge density on r-space grids:       -1.0000000001
  Total charge density g-space grids:          -1.0000000001

  Overlap energy of the core charge distribution:               0.00000347777266
  Self energy of the core charge distribution:              -2836.80744583234036
  Core Hamiltonian energy:                                    833.94261892693123
  Hartree energy:                                            1172.79399908359096
  Exchange-correlation energy:                               -276.56170665330211
  Dispersion energy:                                            0.96976648282230

  Total energy:                                             -1105.66276451452541

  outer SCF iter =    1 RMS gradient =   0.99E-05 energy =      -1105.6627645145
  outer SCF loop converged in   1 iterations or   37 steps


 ENERGY| Total FORCE_EVAL ( QS ) energy (a.u.):            -1105.662764514525406


 -------------------------------------------------------------------------------
 -                                                                             -
 -                                DBCSR STATISTICS                             -
 -                                                                             -
 -------------------------------------------------------------------------------
 COUNTER                                    TOTAL       BLAS       SMM       ACC
 flops    14 x    32 x    32            262176768     100.0%      0.0%      0.0%
 flops    29 x    32 x    32            273678336     100.0%      0.0%      0.0%
 flops   442 x    32 x   442           3801001984     100.0%      0.0%      0.0%
 flops    32 x    32 x   442           8548859904     100.0%      0.0%      0.0%
 flops   442 x    32 x    32          10601889792     100.0%      0.0%      0.0%
 flops    32 x    32 x    32          10972299264     100.0%      0.0%      0.0%
 flops   442 x    32 x   456          27449769984     100.0%      0.0%      0.0%
 flops   456 x    32 x   442          27449769984     100.0%      0.0%      0.0%
 flops    14 x    14 x    32          31559098368     100.0%      0.0%      0.0%
 flops    29 x    14 x    32          32899485696     100.0%      0.0%      0.0%
 flops    14 x    29 x    32          32907384832     100.0%      0.0%      0.0%
 flops    29 x    29 x    32          34913260544     100.0%      0.0%      0.0%
 flops    32 x    32 x   456          61737467904     100.0%      0.0%      0.0%
 flops   456 x    32 x    32          76563873792     100.0%      0.0%      0.0%
 flops    14 x    32 x    14         128426475520     100.0%      0.0%      0.0%
 flops    29 x    32 x    14         134983761920     100.0%      0.0%      0.0%
 flops    14 x    32 x    29         134983761920     100.0%      0.0%      0.0%
 flops    29 x    32 x    29         141027491840     100.0%      0.0%      0.0%
 flops   456 x    32 x   456         198234537984     100.0%      0.0%      0.0%
 flops inhomo. stacks                           0       0.0%      0.0%      0.0%
 flops total                         1.097596E+12     100.0%      0.0%      0.0%
 flops max/rank                     17.322652E+09     100.0%      0.0%      0.0%
 matmuls inhomo. stacks                         0       0.0%      0.0%      0.0%
 matmuls total                           29315000     100.0%      0.0%      0.0%
 number of processed stacks                600992     100.0%      0.0%      0.0%
 average stack size                                    48.8       0.0       0.0
 marketing flops                     1.231612E+12
 -------------------------------------------------------------------------------
 # multiplications                            818
 max memory usage/rank             248.315904E+06
 # max total images/rank                        1
 # max 3D layers                                1
 # MPI messages exchanged                  732928
 MPI messages size (bytes):
  total size                       125.447045E+09
  min size                           0.000000E+00
  max size                           1.663488E+06
  average size                     171.158750E+03
 MPI breakdown and total messages size (bytes):
             size <=      128                1288                        0
       128 < size <=     8192              375480               3075932160
      8192 < size <=    32768                   0                        0
     32768 < size <=   131072              303296              35269685248
    131072 < size <=  4194304               52864              87101499968
   4194304 < size <= 16777216                   0                        0
  16777216 < size                               0                        0
 -------------------------------------------------------------------------------
 
 MEMORY| Estimated peak process memory [MiB]                                 237

 -------------------------------------------------------------------------------
 -                                                                             -
 -                         MESSAGE PASSING PERFORMANCE                         -
 -                                                                             -
 -------------------------------------------------------------------------------

 ROUTINE             CALLS      AVE VOLUME [Bytes]
 MP_Group               53
 MP_Bcast             3056                 317913.
 MP_Allreduce        11878                    320.
 MP_Sync                41
 MP_Alltoall          5513                1360392.
 MP_ISendRecv         9450                  47520.
 MP_Wait             78816
 MP_comm_split          37
 MP_ISend            29494                  99004.
 MP_IRecv            29494                  99234.
 MP_Recv                14                 930304.
 MP_Memory           33148
 -------------------------------------------------------------------------------


 -------------------------------------------------------------------------------
 -                                                                             -
 -                           R E F E R E N C E S                               -
 -                                                                             -
 -------------------------------------------------------------------------------
 
 CP2K version 6.1, the CP2K developers group (2018).
 CP2K is freely available from https://www.cp2k.org/ .

 Lehtola, S; Steigemann, C; Oliveira, MJT; Marques, MAL. 
 SoftwareX, 7, 1-5 (2018). 
 Recent developments in libxc - A comprehensive library of functionals
 for density functional theory.
 http://dx.doi.org/10.1016/j.softx.2017.11.002


 Schuett, Ole; Messmer, Peter; Hutter, Juerg; VandeVondele, Joost. 
 Electronic Structure Calculations on Graphics Processing Units, John Wiley & Sons, Ltd, 173-190 (2016). 
 GPU-Accelerated Sparse Matrix-Matrix Multiplication for Linear Scaling Density Functional Theory.
 http://dx.doi.org/10.1002/9781118670712.ch8


 Borstnik, U; VandeVondele, J; Weber, V; Hutter, J. 
 PARALLEL COMPUTING, 40 (5-6), 47-58 (2014). 
 Sparse matrix multiplication: The distributed block-compressed sparse
 row library.
 http://dx.doi.org/10.1016/j.parco.2014.03.012


 Hutter, J; Iannuzzi, M; Schiffmann, F; VandeVondele, J. 
 WILEY INTERDISCIPLINARY REVIEWS-COMPUTATIONAL MOLECULAR SCIENCE, 4 (1), 15-25 (2014). 
 CP2K: atomistic simulations of condensed matter systems.
 http://dx.doi.org/10.1002/wcms.1159


 Sabatini, R; Gorni, T; de Gironcoli, S. 
 Phys. Rev. B, 87 (4), 041108(R) (2013). 
 Nonlocal van der Waals density functional made simple and efficient.
 http://dx.doi.org/10.1103/PhysRevB.87.041108


 Marques, MAL; Oliveira, MJT; Burnus, T. 
 COMPUTER PHYSICS COMMUNICATIONS, 183 (10), 2272-2281 (2012). 
 LIBXC: A library of exchange and correlation functionals for density
 functional theory.
 http://dx.doi.org/10.1016/j.cpc.2012.05.007


 Roman-Perez, G; Soler, JM. 
 Phys. Rev. Lett., 103 (9), 096102 (2009). 
 Efficient Implementation of a van der Waals Density Functional:
 Application to Double-Wall Carbon Nanotubes.
 http://dx.doi.org/10.1103/PhysRevLett.103.096102


 VandeVondele, J; Hutter, J. 
 JOURNAL OF CHEMICAL PHYSICS, 127 (11), 114105 (2007). 
 Gaussian basis sets for accurate calculations on molecular systems in
 gas and condensed phases.
 http://dx.doi.org/10.1063/1.2770708


 Krack, M. 
 THEORETICAL CHEMISTRY ACCOUNTS, 114 (1-3), 145-152 (2005). 
 Pseudopotentials for H to Kr optimized for gradient-corrected
 exchange-correlation functionals.
 http://dx.doi.org/10.1007/s00214-005-0655-y


 VandeVondele, J; Krack, M; Mohamed, F; Parrinello, M; Chassaing, T;
 Hutter, J. COMPUTER PHYSICS COMMUNICATIONS, 167 (2), 103-128 (2005). 
 QUICKSTEP: Fast and accurate density functional calculations using a
 mixed Gaussian and plane waves approach.
 http://dx.doi.org/10.1016/j.cpc.2004.12.014


 Frigo, M; Johnson, SG. 
 PROCEEDINGS OF THE IEEE, 93 (2), 216-231 (2005). 
 The design and implementation of FFTW3.
 http://dx.doi.org/10.1109/JPROC.2004.840301


 VandeVondele, J; Hutter, J. 
 JOURNAL OF CHEMICAL PHYSICS, 118 (10), 4365-4369 (2003). 
 An efficient orbital transformation method for electronic structure
 calculations.
 http://dx.doi.org/10.1063/1.1543154


 Hartwigsen, C; Goedecker, S; Hutter, J. 
 PHYSICAL REVIEW B, 58 (7), 3641-3662 (1998). 
 Relativistic separable dual-space Gaussian pseudopotentials from H to Rn.
 http://dx.doi.org/10.1103/PhysRevB.58.3641


 Lippert, G; Hutter, J; Parrinello, M. 
 MOLECULAR PHYSICS, 92 (3), 477-487 (1997). 
 A hybrid Gaussian and plane wave density functional scheme.
 http://dx.doi.org/10.1080/002689797170220


 Goedecker, S; Teter, M; Hutter, J. 
 PHYSICAL REVIEW B, 54 (3), 1703-1710 (1996). 
 Separable dual-space Gaussian pseudopotentials.
 http://dx.doi.org/10.1103/PhysRevB.54.1703


 -------------------------------------------------------------------------------
 -                                                                             -
 -                                T I M I N G                                  -
 -                                                                             -
 -------------------------------------------------------------------------------
 SUBROUTINE                       CALLS  ASD         SELF TIME        TOTAL TIME
                                MAXIMUM       AVERAGE  MAXIMUM  AVERAGE  MAXIMUM
 CP2K                                 1  1.0    0.037    0.042  154.432  154.433
 qs_energies                          1  2.0    0.000    0.000  153.745  153.745
 scf_env_do_scf                       1  3.0    0.000    0.000  152.657  152.657
 scf_env_do_scf_inner_loop           37  4.0    0.001    0.002  150.090  150.115
 dbcsr_multiply_generic             818 10.1    0.048    0.049   97.912   98.073
 qs_scf_new_mos                      37  5.0    0.000    0.000   93.525   93.573
 qs_scf_loop_do_ot                   37  6.0    0.000    0.000   93.525   93.573
 ot_scf_mini                         37  7.0    0.002    0.002   88.589   88.694
 ot_mini                             37  8.0    0.000    0.000   60.985   61.017
 qs_ot_get_derivative                37  9.0    0.000    0.000   55.153   55.200
 multiply_cannon                    818 11.1    0.122    0.126   48.954   49.445
 mp_deallocate_d                   9608 14.3   46.309   47.610   46.309   47.610
 qs_ks_update_qs_env                 38  5.0    0.000    0.001   44.651   44.689
 rebuild_ks_matrix                   37  6.0    0.000    0.000   44.608   44.646
 qs_ks_build_kohn_sham_matrix        37  7.0    0.005    0.006   44.608   44.646
 qs_ot_get_derivative_diag           36 10.0    0.001    0.001   41.949   42.001
 dbcsr_destroy                     9217 11.8    0.030    0.032   37.166   38.322
 make_m2s                          1636 11.1    0.050    0.052   35.558   35.924
 mp_deallocate_i                   6968 14.3   32.479   33.170   32.479   33.170
 dbcsr_data_release               54827 13.7    0.133    0.149   29.363   30.284
 qs_vxc_create                       37  8.0    0.003    0.005   26.145   26.225
 pw_transfer                       2818  9.9    0.123    0.143   24.798   25.841
 fft_wrap_pw1pw2                   2559 10.9    0.014    0.017   24.457   25.509
 fft3d_ps                          2559 12.9    6.566    7.303   20.833   22.147
 make_images                       1636 12.1    0.067    0.069   21.639   21.824
 fft_wrap_pw1pw2_400                447 11.8    1.208    1.450   16.741   17.294
 setup_buffer_matrices             1636 12.1    0.022    0.023   16.734   17.248
 dbcsr_create_new                  9557 12.5    0.049    0.050   15.673   16.072
 dbcsr_make_index_exist            9557 13.5    0.023    0.024   15.364   15.755
 xc_vxc_pw_create                    37  9.0    0.109    0.121   15.104   15.216
 mp_alltoall_z22v                  2559 14.9   12.858   14.716   12.858   14.716
 qs_ot_get_p                         38  7.9    0.000    0.000   14.517   14.684
 dbcsr_make_images_dense           1470 12.3    0.020    0.022   13.846   14.083
 qs_rho_update_rho                   38  5.0    0.000    0.000   13.424   13.478
 calculate_rho_elec                  38  6.0    6.396    6.520   13.424   13.477
 sum_up_and_integrate                37  8.0    0.074    0.108   11.880   11.990
 integrate_v_rspace                  37  9.0    5.909    6.035   11.806   11.938
 calculate_dispersion_nonloc         37  9.0    1.021    1.334   11.039   11.149
 xc_rho_set_and_dset_create          37 10.0    0.066    0.077    8.535    9.259
 qs_ot_p2m_diag                      37  9.0    0.005    0.006    8.872    9.017
 dbcsr_special_finalize            1636 13.1    0.007    0.007    8.788    8.972
 quick_finalize                    1832 13.9    0.010    0.011    8.778    8.962
 qs_ot_get_orbitals                  37  8.0    0.000    0.000    8.623    8.690
 yz_to_x                           1151 13.8    0.484    0.590    7.039    8.552
 buffer_matrices_ensure_size       1636 12.1    0.108    0.125    7.860    8.053
 fft_wrap_pw1pw2_100               1887 12.0    0.344    0.472    6.991    7.587
 x_to_yz                           1333 14.0    0.852    1.023    7.152    7.560
 mp_waitall_1                     75494 13.3    6.701    7.450    6.701    7.450
 dbcsr_switch_data_area            5308 13.8    0.006    0.006    7.339    7.437
 rs_pw_transfer                     301  9.5    0.003    0.004    6.249    6.406
 density_rs2pw                       38  7.0    0.002    0.003    5.959    6.098
 ot_diis_step                        37  9.0    0.002    0.002    5.666    5.666
 apply_preconditioner_dbcsr          38 10.0    0.000    0.000    5.618    5.640
 apply_single                        38 11.0    0.000    0.000    5.618    5.640
 potential_pw2rs                     37 10.0    0.010    0.010    5.146    5.267
 calculate_dm_sparse                 38  7.0    0.000    0.000    5.089    5.163
 xc_functional_eval                  74 11.0    0.000    0.001    3.901    4.650
 libxc_lda_eval                      74 12.0    3.900    4.649    3.901    4.650
 make_images_sizes                 1636 13.1    0.003    0.003    3.969    4.410
 mp_alltoall_i44                   1636 14.1    3.967    4.407    3.967    4.407
 mp_sum_l                          3959 11.1    3.360    4.179    3.360    4.179
 multiply_cannon_metrocomm1        6544 12.1    0.024    0.026    3.376    4.111
 -------------------------------------------------------------------------------

 The number of warnings for this run is : 1
 
 -------------------------------------------------------------------------------
  **** **** ******  **  PROGRAM ENDED AT                 2024-03-14 23:30:03.442
 ***** ** ***  *** **   PROGRAM RAN ON                                      tc23
 **    ****   ******    PROGRAM RAN BY                                  fambrosi
 ***** **    ** ** **   PROGRAM PROCESS ID                                 19408
  **** **  *******  **  PROGRAM STOPPED IN          /scratch/fambrosi.55032.tccw
